#(written by ASE)

64 atoms
1 atom types

0.0      10.859999999999999  xlo xhi
0.0      10.859999999999999  ylo yhi
0.0      10.859999999999999  zlo zhi
0.000000    0.000000    0.000000   xy xz yz


Masses

 1 28.085

Atoms # atomic

     1   1                       0                       0                       0
     2   1      5.4299999999999997                       0                       0
     3   1                       0      5.4299999999999997                       0
     4   1      5.4299999999999997      5.4299999999999997                       0
     5   1                       0                       0      5.4299999999999997
     6   1      5.4299999999999997                       0      5.4299999999999997
     7   1                       0      5.4299999999999997      5.4299999999999997
     8   1      5.4299999999999997      5.4299999999999997      5.4299999999999997
     9   1      1.3574999999999999      1.3574999999999999      1.3574999999999999
    10   1      6.7874999999999996      1.3574999999999999      1.3574999999999999
    11   1      1.3574999999999999      6.7874999999999996      1.3574999999999999
    12   1      6.7874999999999996      6.7874999999999996      1.3574999999999999
    13   1      1.3574999999999999      1.3574999999999999      6.7874999999999996
    14   1      6.7874999999999996      1.3574999999999999      6.7874999999999996
    15   1      1.3574999999999999      6.7874999999999996      6.7874999999999996
    16   1      6.7874999999999996      6.7874999999999996      6.7874999999999996
    17   1                       0      2.7149999999999999      2.7149999999999999
    18   1      5.4299999999999997      2.7149999999999999      2.7149999999999999
    19   1                       0      8.1449999999999996      2.7149999999999999
    20   1      5.4299999999999997      8.1449999999999996      2.7149999999999999
    21   1                       0      2.7149999999999999      8.1449999999999996
    22   1      5.4299999999999997      2.7149999999999999      8.1449999999999996
    23   1                       0      8.1449999999999996      8.1449999999999996
    24   1      5.4299999999999997      8.1449999999999996      8.1449999999999996
    25   1      1.3574999999999999      4.0724999999999998      4.0724999999999998
    26   1      6.7874999999999996      4.0724999999999998      4.0724999999999998
    27   1      1.3574999999999999      9.5024999999999995      4.0724999999999998
    28   1      6.7874999999999996      9.5024999999999995      4.0724999999999998
    29   1      1.3574999999999999      4.0724999999999998      9.5024999999999995
    30   1      6.7874999999999996      4.0724999999999998      9.5024999999999995
    31   1      1.3574999999999999      9.5024999999999995      9.5024999999999995
    32   1      6.7874999999999996      9.5024999999999995      9.5024999999999995
    33   1      2.7149999999999999                       0      2.7149999999999999
    34   1      8.1449999999999996                       0      2.7149999999999999
    35   1      2.7149999999999999      5.4299999999999997      2.7149999999999999
    36   1      8.1449999999999996      5.4299999999999997      2.7149999999999999
    37   1      2.7149999999999999                       0      8.1449999999999996
    38   1      8.1449999999999996                       0      8.1449999999999996
    39   1      2.7149999999999999      5.4299999999999997      8.1449999999999996
    40   1      8.1449999999999996      5.4299999999999997      8.1449999999999996
    41   1      4.0724999999999998      1.3574999999999999      4.0724999999999998
    42   1      9.5024999999999995      1.3574999999999999      4.0724999999999998
    43   1      4.0724999999999998      6.7874999999999996      4.0724999999999998
    44   1      9.5024999999999995      6.7874999999999996      4.0724999999999998
    45   1      4.0724999999999998      1.3574999999999999      9.5024999999999995
    46   1      9.5024999999999995      1.3574999999999999      9.5024999999999995
    47   1      4.0724999999999998      6.7874999999999996      9.5024999999999995
    48   1      9.5024999999999995      6.7874999999999996      9.5024999999999995
    49   1      2.7149999999999999      2.7149999999999999                       0
    50   1      8.1449999999999996      2.7149999999999999                       0
    51   1      2.7149999999999999      8.1449999999999996                       0
    52   1      8.1449999999999996      8.1449999999999996                       0
    53   1      2.7149999999999999      2.7149999999999999      5.4299999999999997
    54   1      8.1449999999999996      2.7149999999999999      5.4299999999999997
    55   1      2.7149999999999999      8.1449999999999996      5.4299999999999997
    56   1      8.1449999999999996      8.1449999999999996      5.4299999999999997
    57   1      4.0724999999999998      4.0724999999999998      1.3574999999999999
    58   1      9.5024999999999995      4.0724999999999998      1.3574999999999999
    59   1      4.0724999999999998      9.5024999999999995      1.3574999999999999
    60   1      9.5024999999999995      9.5024999999999995      1.3574999999999999
    61   1      4.0724999999999998      4.0724999999999998      6.7874999999999996
    62   1      9.5024999999999995      4.0724999999999998      6.7874999999999996
    63   1      4.0724999999999998      9.5024999999999995      6.7874999999999996
    64   1      9.5024999999999995      9.5024999999999995      6.7874999999999996
