LAMMPS data file via write_data, version 29 Oct 2020, timestep = 1362

30 atoms
3 atom types

0.0 8.86380098925883 xlo xhi
0.0 7.665672180304073 ylo yhi
0.0 7.41023242027253 zlo zhi
-4.413583033767974 -1.3390490052780508 2.3257069896649076 xy xz yz

Masses

1 32.06
2 12.011
3 63.546

Atoms # atomic

2 1 -0.932707 -0.6615472875427062 4.3184640879244 3.3374840655869638 0 0 0
7 2 -0.0672927 1.2424648494623376 0.715360902403401 2.5166683473796584e-07 0 0 0
1 1 -0.932707 2.7507297144939185 1.5837586576838425 5.653286202083796e-07 0 0 0
8 2 -0.0672927 -0.6686345162475228 2.5939007406114505 3.641432831391791 0 0 0
17 1 -0.932707 -1.331071790181616 5.481317582756945 7.042600275723233 0 0 0
22 2 -0.0672927 0.5729403468234212 1.878214397235957 3.705116461803091 0 0 0
16 1 -0.932707 2.081205211854755 2.7466121525163083 3.7051167754648846 0 0 0
23 2 -0.0672927 -1.3381590188868282 3.7567542354439656 7.346549041528071 0 0 0
5 1 -0.932707 -1.6805144071775375 6.088244643503104 0.3676325652249367 0 0 0
11 2 -0.0672927 -3.1755250335195893 6.947960973145291 0.06368362309651979 0 0 0
29 3 2 -2.87631600079255 4.995689604656153 3.705116189881493 0 0 0
20 1 -0.932707 -2.3500389098165564 7.2510981383356965 4.072748775361189 0 0 0
26 2 -0.0672927 -3.845049536158906 8.110814467977654 3.7687998332327717 0 0 0
14 3 2 -3.5458405034315845 6.158543099488664 7.410232400017766 0 0 -1
12 2 -0.0672927 6.9562185239547585 1.8805647413979552 3.6414325465172483 0 0 0
6 1 -0.932707 5.461207897561895 2.7402810709613714 3.3374836043886393 0 0 0
28 3 2 3.7623760108750863 1.1628535146002683 3.705116191050137 0 0 0
27 2 -0.0672927 6.2866940213160865 3.0434182362299653 7.346548756653524 0 0 0
21 1 -0.932707 4.791683394922548 3.903134565793996 7.042599814524849 0 0 0
13 3 2 3.0928515082360444 2.325707009432764 7.4102324011863905 0 0 -1
3 1 -0.932707 1.029963775948311 7.2447670568706135 3.705115604298446 0 0 0
30 3 2 1.5555844939972592 4.995689604741292 3.705116188714091 0 0 0
4 1 -0.932707 4.442240777878255 4.510061626625007 0.36763210405261654 0 0 0
9 2 -0.0672927 2.5382286409764947 8.113164812149025 3.7051159179597732 0 0 0
10 2 -0.0672927 4.449328006676759 6.234624973942565 0.06368333824755357 0 0 0
18 1 -0.932707 0.3604392733092536 8.407620551703111 7.410231814434706 0 0 0
19 1 -0.932707 3.772716275239218 5.6729151214573195 4.072748314188893 0 0 0
24 2 -0.0672927 1.86870413833757 9.276018306981491 7.410232128096136 0 0 0
15 3 2 0.8860599913581972 6.158543099573716 7.410232398850343 0 0 -1
25 2 -0.0672927 3.7798035040379343 7.397478468774987 3.768799548383895 0 0 0

Velocities

2 0.0 0.0 0.0
7 0.0 0.0 0.0
1 0.0 0.0 0.0
8 0.0 0.0 0.0
17 0.0 0.0 0.0
22 0.0 0.0 0.0
16 0.0 0.0 0.0
23 0.0 0.0 0.0
5 0.0 0.0 0.0
11 0.0 0.0 0.0
29 0.0 0.0 0.0
20 0.0 0.0 0.0
26 0.0 0.0 0.0
14 0.0 0.0 0.0
12 0.0 0.0 0.0
6 0.0 0.0 0.0
28 0.0 0.0 0.0
27 0.0 0.0 0.0
21 0.0 0.0 0.0
13 0.0 0.0 0.0
3 0.0 0.0 0.0
30 0.0 0.0 0.0
4 0.0 0.0 0.0
9 0.0 0.0 0.0
10 0.0 0.0 0.0
18 0.0 0.0 0.0
19 0.0 0.0 0.0
24 0.0 0.0 0.0
15 0.0 0.0 0.0
25 0.0 0.0 0.0
