LAMMPS data file via write_data, version 29 Oct 2020, timestep = 1362

14 atoms
3 atom types

-2 12 xlo xhi
8 19 ylo yhi
9.4 14.5 zlo zhi
0 0 0 xy xz yz

Masses

1 32.06
2 12.011
3 63.546

Atoms # atomic

1 2 1.1992 10.5006 10.7526 0 0 0 
2 2 1.1514 11.9491 10.7707 0 0 0
3 2 2.3758 12.6957 10.7054 0 0 0
4 2 3.60534 11.947 10.7742 0 0 0
5 2 3.64983 10.5426 10.826 0 0 0
6 2 2.41687 9.79838 10.795 0 0 0 
7 1 -0.34607 9.67532 10.791 0 0 0
8 1 -0.457593 12.7353 10.694 0 0 0
9 1 2.37595 14.3386 10.4185 0 0 0
10 1 5.09023 9.67087 11.114 0 0 0
11 1 2.47345 8.07834 11.0578 0 0 0
12 1 5.10248 12.8598 10.4566 0 0 0
13 3 10.53004 18.02 13.2136 0 0 0
14 3 9.53004 16.02 13.4136 0 0 0

Velocities

1 0.0 0.0 0.0
2 0.0 0.0 0.0
3 0.0 0.0 0.0
4 0.0 0.0 0.0
5 0.0 0.0 0.0
6 0.0 0.0 0.0
7 0.0 0.0 0.0
8 0.0 0.0 0.0
9 0.0 0.0 0.0
10 0.0 0.0 0.0
11 0.0 0.0 0.0
12 0.0 0.0 0.0
13 0.0 0.0 0.0
14 0.0 0.0 0.0

