
     Program PHONON v.6.4.1 starts on  8Apr2022 at 12:22:20 

     This program is part of the open-source Quantum ESPRESSO suite
     for quantum simulation of materials; please cite
         "P. Giannozzi et al., J. Phys.:Condens. Matter 21 395502 (2009);
         "P. Giannozzi et al., J. Phys.:Condens. Matter 29 465901 (2017);
          URL http://www.quantum-espresso.org", 
     in publications or presentations arising from this work. More details at
     http://www.quantum-espresso.org/quote

     Parallel version (MPI), running on     1 processors

     MPI processes distributed on     1 nodes

     Reading data from directory:
     ./tmp/Si.save/

     IMPORTANT: XC functional enforced from input :
     Exchange-correlation      = PBE ( 1  4  3  4 0 0)
     Any further DFT definition will be discarded
     Please, verify this is what you really want


     G-vector sticks info
     --------------------
     sticks:   dense  smooth     PW     G-vecs:    dense   smooth      PW
     Sum         859     859    253                16889    16889    2733



     Dynamical matrices for ( 3, 3, 3)  uniform grid of q-points
     (   4 q-points):
       N         xq(1)         xq(2)         xq(3) 
       1   0.000000000   0.000000000   0.000000000
       2  -0.333333333   0.333333333  -0.333333333
       3   0.000000000   0.666666667   0.000000000
       4   0.666666667  -0.000000000   0.666666667

     Calculation of q =    0.0000000   0.0000000   0.0000000

                                                                                

     bravais-lattice index     =            2
     lattice parameter (alat)  =      10.2625  a.u.
     unit-cell volume          =     270.2088 (a.u.)^3
     number of atoms/cell      =            2
     number of atomic types    =            1
     kinetic-energy cut-off    =      60.0000  Ry
     charge density cut-off    =     240.0000  Ry
     convergence threshold     =      1.0E-16
     beta                      =       0.7000
     number of iterations used =            4
     Exchange-correlation      = PBE ( 1  4  3  4 0 0)


     celldm(1)=   10.26250  celldm(2)=    0.00000  celldm(3)=    0.00000
     celldm(4)=    0.00000  celldm(5)=    0.00000  celldm(6)=    0.00000

     crystal axes: (cart. coord. in units of alat)
               a(1) = ( -0.5000  0.0000  0.5000 )  
               a(2) = (  0.0000  0.5000  0.5000 )  
               a(3) = ( -0.5000  0.5000  0.0000 )  

     reciprocal axes: (cart. coord. in units 2 pi/alat)
               b(1) = ( -1.0000 -1.0000  1.0000 )  
               b(2) = (  1.0000  1.0000  1.0000 )  
               b(3) = ( -1.0000  1.0000 -1.0000 )  


     Atoms inside the unit cell: 

     Cartesian axes

     site n.  atom      mass           positions (alat units)
        1     Si  28.0850   tau(    1) = (    0.00000    0.00000    0.00000  )
        2     Si  28.0850   tau(    2) = (    0.25000    0.25000    0.25000  )

     Computing dynamical matrix for 
                    q = (   0.0000000   0.0000000   0.0000000 )

     49 Sym.Ops. (with q -> -q+G )


     G cutoff =  640.2622  (  16889 G-vectors)     FFT grid: ( 36, 36, 36)
     number of k points=     8

     PseudoPot. # 1 for Si read from file:
     ./Si.pbe-n-rrkjus_psl.0.1.UPF
     MD5 check sum: 7b4bf2ea543dc08298462eff3fb52eea
     Pseudo is Ultrasoft + core correction, Zval =  4.0
     Generated using "atomic" code by A. Dal Corso v.5.0.2 svn rev. 9415
     Using radial grid of 1141 points,  4 beta functions with: 
                l(1) =   0
                l(2) =   0
                l(3) =   1
                l(4) =   1
     Q(r) pseudized with 0 coefficients 


     Mode symmetry, O_h (m-3m)  point group:


     Electric field:
     Dielectric constant
     Born effective charges in two ways 


     Atomic displacements:
     There are   2 irreducible representations

     Representation     1      3 modes -T_2g G_25' G_5+  To be done

     Representation     2      3 modes -T_1u G_15  G_4-  To be done



     Alpha used in Ewald sum =   2.5000
     PHONON       :      2.47s CPU      2.49s WALL


     Electric Fields Calculation

      iter #   1 total cpu time :     8.8 secs   av.it.:   6.2
      thresh= 1.000E-02 alpha_mix =  0.700 |ddv_scf|^2 =  1.719E-07

      iter #   2 total cpu time :    11.8 secs   av.it.:  11.0
      thresh= 4.146E-05 alpha_mix =  0.700 |ddv_scf|^2 =  1.442E-08

      iter #   3 total cpu time :    14.9 secs   av.it.:  10.5
      thresh= 1.201E-05 alpha_mix =  0.700 |ddv_scf|^2 =  1.144E-09

      iter #   4 total cpu time :    17.7 secs   av.it.:  10.5
      thresh= 3.382E-06 alpha_mix =  0.700 |ddv_scf|^2 =  8.043E-12

      iter #   5 total cpu time :    20.8 secs   av.it.:  10.7
      thresh= 2.836E-07 alpha_mix =  0.700 |ddv_scf|^2 =  1.205E-14

      iter #   6 total cpu time :    23.8 secs   av.it.:  10.0
      thresh= 1.098E-08 alpha_mix =  0.700 |ddv_scf|^2 =  5.752E-16

      iter #   7 total cpu time :    26.6 secs   av.it.:  10.3
      thresh= 2.398E-09 alpha_mix =  0.700 |ddv_scf|^2 =  1.207E-18

     End of electric fields calculation

          Dielectric constant in cartesian axis 

          (      23.563250761       0.000000000       0.000000000 )
          (       0.000000000      23.563250761      -0.000000000 )
          (       0.000000000      -0.000000000      23.563250761 )

          Effective charges (d Force / dE) in cartesian axis

           atom      1   Si 
      Ex  (       -1.17493        0.00000        0.00000 )
      Ey  (        0.00000       -1.17493       -0.00000 )
      Ez  (        0.00000        0.00000       -1.17493 )
           atom      2   Si 
      Ex  (       -1.17493        0.00000        0.00000 )
      Ey  (        0.00000       -1.17493        0.00000 )
      Ez  (        0.00000        0.00000       -1.17493 )


     Representation #  1 modes #   1  2  3

     Self-consistent Calculation

      iter #   1 total cpu time :    31.4 secs   av.it.:   4.9
      thresh= 1.000E-02 alpha_mix =  0.700 |ddv_scf|^2 =  3.480E-08

      iter #   2 total cpu time :    34.4 secs   av.it.:  10.3
      thresh= 1.866E-05 alpha_mix =  0.700 |ddv_scf|^2 =  2.332E-09

      iter #   3 total cpu time :    37.5 secs   av.it.:  10.4
      thresh= 4.829E-06 alpha_mix =  0.700 |ddv_scf|^2 =  1.070E-10

      iter #   4 total cpu time :    41.5 secs   av.it.:  10.3
      thresh= 1.034E-06 alpha_mix =  0.700 |ddv_scf|^2 =  3.479E-13

      iter #   5 total cpu time :    44.8 secs   av.it.:  10.6
      thresh= 5.898E-08 alpha_mix =  0.700 |ddv_scf|^2 =  3.824E-15

      iter #   6 total cpu time :    47.7 secs   av.it.:  10.2
      thresh= 6.183E-09 alpha_mix =  0.700 |ddv_scf|^2 =  1.864E-17

     End of self-consistent calculation

     Convergence has been achieved 


     Representation #  2 modes #   4  5  6

     Self-consistent Calculation

      iter #   1 total cpu time :    50.7 secs   av.it.:   5.3
      thresh= 1.000E-02 alpha_mix =  0.700 |ddv_scf|^2 =  3.250E-08

      iter #   2 total cpu time :    53.8 secs   av.it.:  10.5
      thresh= 1.803E-05 alpha_mix =  0.700 |ddv_scf|^2 =  2.427E-09

      iter #   3 total cpu time :    57.0 secs   av.it.:  10.9
      thresh= 4.927E-06 alpha_mix =  0.700 |ddv_scf|^2 =  9.902E-11

      iter #   4 total cpu time :    60.3 secs   av.it.:  11.1
      thresh= 9.951E-07 alpha_mix =  0.700 |ddv_scf|^2 =  5.347E-13

      iter #   5 total cpu time :    63.3 secs   av.it.:  11.2
      thresh= 7.312E-08 alpha_mix =  0.700 |ddv_scf|^2 =  1.131E-15

      iter #   6 total cpu time :    66.6 secs   av.it.:  10.6
      thresh= 3.363E-09 alpha_mix =  0.700 |ddv_scf|^2 =  2.798E-17

     End of self-consistent calculation

     Convergence has been achieved 

     Number of q in the star =    1
     List of q in the star:
          1   0.000000000   0.000000000   0.000000000

          Dielectric constant in cartesian axis 

          (      23.563250761       0.000000000       0.000000000 )
          (       0.000000000      23.563250761      -0.000000000 )
          (       0.000000000      -0.000000000      23.563250761 )

          Effective charges (d Force / dE) in cartesian axis

           atom      1   Si 
      Ex  (       -1.17493        0.00000        0.00000 )
      Ey  (        0.00000       -1.17493       -0.00000 )
      Ez  (        0.00000        0.00000       -1.17493 )
           atom      2   Si 
      Ex  (       -1.17493        0.00000        0.00000 )
      Ey  (        0.00000       -1.17493        0.00000 )
      Ez  (        0.00000        0.00000       -1.17493 )

          Effective charges (d P / du) in cartesian axis 

           atom      1   Si 
      Px  (       -1.17497        0.00000        0.00000 )
      Py  (        0.00000       -1.17497        0.00000 )
      Pz  (       -0.00000        0.00000       -1.17497 )
           atom      2   Si 
      Px  (       -1.17497        0.00000        0.00000 )
      Py  (       -0.00000       -1.17497       -0.00000 )
      Pz  (        0.00000       -0.00000       -1.17497 )

     Diagonalizing the dynamical matrix

     q = (    0.000000000   0.000000000   0.000000000 ) 

 **************************************************************************
     freq (    1) =       0.367066 [THz] =      12.243996 [cm-1]
     freq (    2) =       0.367066 [THz] =      12.243996 [cm-1]
     freq (    3) =       0.367066 [THz] =      12.243996 [cm-1]
     freq (    4) =      15.635413 [THz] =     521.541249 [cm-1]
     freq (    5) =      15.635413 [THz] =     521.541249 [cm-1]
     freq (    6) =      15.635413 [THz] =     521.541249 [cm-1]
 **************************************************************************

     Mode symmetry, O_h (m-3m)  point group:

     freq (  1 -  3) =         12.2  [cm-1]   --> T_1u G_15  G_4- I  
     freq (  4 -  6) =        521.5  [cm-1]   --> T_2g G_25' G_5+ R  

     Calculation of q =   -0.3333333   0.3333333  -0.3333333

     Subspace diagonalization in iterative solution of the eigenvalue problem:
     a serial algorithm will be used


     G-vector sticks info
     --------------------
     sticks:   dense  smooth     PW     G-vecs:    dense   smooth      PW
     Sum         859     859    283                16889    16889    3119



     bravais-lattice index     =            2
     lattice parameter (alat)  =      10.2625  a.u.
     unit-cell volume          =     270.2088 (a.u.)^3
     number of atoms/cell      =            2
     number of atomic types    =            1
     number of electrons       =         8.00
     number of Kohn-Sham states=            4
     kinetic-energy cutoff     =      60.0000  Ry
     charge density cutoff     =     240.0000  Ry
     Exchange-correlation      = PBE ( 1  4  3  4 0 0)

     celldm(1)=  10.262500  celldm(2)=   0.000000  celldm(3)=   0.000000
     celldm(4)=   0.000000  celldm(5)=   0.000000  celldm(6)=   0.000000

     crystal axes: (cart. coord. in units of alat)
               a(1) = (  -0.500000   0.000000   0.500000 )  
               a(2) = (   0.000000   0.500000   0.500000 )  
               a(3) = (  -0.500000   0.500000   0.000000 )  

     reciprocal axes: (cart. coord. in units 2 pi/alat)
               b(1) = ( -1.000000 -1.000000  1.000000 )  
               b(2) = (  1.000000  1.000000  1.000000 )  
               b(3) = ( -1.000000  1.000000 -1.000000 )  


     PseudoPot. # 1 for Si read from file:
     ./Si.pbe-n-rrkjus_psl.0.1.UPF
     MD5 check sum: 7b4bf2ea543dc08298462eff3fb52eea
     Pseudo is Ultrasoft + core correction, Zval =  4.0
     Generated using "atomic" code by A. Dal Corso v.5.0.2 svn rev. 9415
     Using radial grid of 1141 points,  4 beta functions with: 
                l(1) =   0
                l(2) =   0
                l(3) =   1
                l(4) =   1
     Q(r) pseudized with 0 coefficients 


     atomic species   valence    mass     pseudopotential
        Si             4.00    28.08500     Si( 1.00)

     48 Sym. Ops., with inversion, found



   Cartesian axes

     site n.     atom                  positions (alat units)
         1           Si  tau(   1) = (   0.0000000   0.0000000   0.0000000  )
         2           Si  tau(   2) = (   0.2500000   0.2500000   0.2500000  )

     number of k points=    40
                       cart. coord. in units 2pi/alat
        k(    1) = (   0.0000000   0.0000000   0.0000000), wk =   0.0312500
        k(    2) = (  -0.3333333   0.3333333  -0.3333333), wk =   0.0000000
        k(    3) = (  -0.2500000   0.2500000  -0.2500000), wk =   0.0312500
        k(    4) = (  -0.5833333   0.5833333  -0.5833333), wk =   0.0000000
        k(    5) = (   0.5000000  -0.5000000   0.5000000), wk =   0.0312500
        k(    6) = (   0.1666667  -0.1666667   0.1666667), wk =   0.0000000
        k(    7) = (   0.0000000   0.5000000   0.0000000), wk =   0.0937500
        k(    8) = (  -0.3333333   0.8333333  -0.3333333), wk =   0.0000000
        k(    9) = (   0.7500000  -0.2500000   0.7500000), wk =   0.0937500
        k(   10) = (   0.4166667   0.0833333   0.4166667), wk =   0.0000000
        k(   11) = (   0.5000000   0.0000000   0.5000000), wk =   0.0937500
        k(   12) = (   0.1666667   0.3333333   0.1666667), wk =   0.0000000
        k(   13) = (   0.0000000  -1.0000000   0.0000000), wk =   0.0937500
        k(   14) = (  -0.3333333  -0.6666667  -0.3333333), wk =   0.0000000
        k(   15) = (  -0.5000000  -1.0000000   0.0000000), wk =   0.1875000
        k(   16) = (  -0.8333333  -0.6666667  -0.3333333), wk =   0.0000000
        k(   17) = (   0.2500000   0.2500000  -0.2500000), wk =   0.0937500
        k(   18) = (  -0.0833333   0.5833333  -0.5833333), wk =   0.0000000
        k(   19) = (   0.2500000   0.2500000   0.2500000), wk =   0.0937500
        k(   20) = (  -0.0833333   0.5833333  -0.0833333), wk =   0.0000000
        k(   21) = (   0.2500000  -0.2500000   0.2500000), wk =   0.0312500
        k(   22) = (  -0.0833333   0.0833333  -0.0833333), wk =   0.0000000
        k(   23) = (  -0.5000000  -0.5000000   0.5000000), wk =   0.0937500
        k(   24) = (  -0.8333333  -0.1666667   0.1666667), wk =   0.0000000
        k(   25) = (   0.0000000  -0.5000000   0.0000000), wk =   0.0937500
        k(   26) = (  -0.3333333  -0.1666667  -0.3333333), wk =   0.0000000
        k(   27) = (  -0.7500000  -0.2500000   0.7500000), wk =   0.1875000
        k(   28) = (  -1.0833333   0.0833333   0.4166667), wk =   0.0000000
        k(   29) = (  -0.7500000  -0.2500000  -0.7500000), wk =   0.0937500
        k(   30) = (  -1.0833333   0.0833333  -1.0833333), wk =   0.0000000
        k(   31) = (  -0.7500000   0.2500000  -0.7500000), wk =   0.0937500
        k(   32) = (  -1.0833333   0.5833333  -1.0833333), wk =   0.0000000
        k(   33) = (   0.7500000   0.2500000   0.7500000), wk =   0.0937500
        k(   34) = (   0.4166667   0.5833333   0.4166667), wk =   0.0000000
        k(   35) = (  -0.2500000   0.7500000   0.7500000), wk =   0.1875000
        k(   36) = (  -0.5833333   1.0833333   0.4166667), wk =   0.0000000
        k(   37) = (  -0.5000000   0.0000000   0.5000000), wk =   0.1875000
        k(   38) = (  -0.8333333   0.3333333   0.1666667), wk =   0.0000000
        k(   39) = (  -0.5000000   0.0000000  -0.5000000), wk =   0.0937500
        k(   40) = (  -0.8333333   0.3333333  -0.8333333), wk =   0.0000000

     Dense  grid:    16889 G-vectors     FFT dimensions: (  36,  36,  36)

     Estimated max dynamical RAM per process >      18.33 MB

     The potential is recalculated from file :
     ./tmp/_ph0/Si.save/charge-density

     Starting wfcs are    8 atomic wfcs

     Band Structure Calculation
     Davidson diagonalization with overlap

     ethr =  1.25E-10,  avg # of iterations = 11.6

     total cpu time spent up to now is        5.2 secs

     End of band structure calculation

          k = 0.0000 0.0000 0.0000 (  2109 PWs)   bands (ev):

    -5.7199   6.2527   6.2527   6.2527

          k =-0.3333 0.3333-0.3333 (  2114 PWs)   bands (ev):

    -4.3408   0.9100   5.2478   5.2478

          k =-0.2500 0.2500-0.2500 (  2106 PWs)   bands (ev):

    -4.9189   2.3187   5.4891   5.4891

          k =-0.5833 0.5833-0.5833 (  2114 PWs)   bands (ev):

    -3.7188  -0.2216   5.0991   5.0991

          k = 0.5000-0.5000 0.5000 (  2120 PWs)   bands (ev):

    -3.3835  -0.7283   5.0492   5.0492

          k = 0.1667-0.1667 0.1667 (  2112 PWs)   bands (ev):

    -5.3581   3.8664   5.7995   5.7995

          k = 0.0000 0.5000 0.0000 (  2085 PWs)   bands (ev):

    -4.6363   2.7341   4.3545   4.3545

          k =-0.3333 0.8333-0.3333 (  2125 PWs)   bands (ev):

    -2.6723  -0.5521   2.3437   4.2197

          k = 0.7500-0.2500 0.7500 (  2123 PWs)   bands (ev):

    -2.9973  -0.1361   2.7074   4.0391

          k = 0.4167 0.0833 0.4167 (  2118 PWs)   bands (ev):

    -4.2361   1.3877   3.3396   5.3196

          k = 0.5000 0.0000 0.5000 (  2119 PWs)   bands (ev):

    -3.6727   0.7676   2.4875   4.9192

          k = 0.1667 0.3333 0.1667 (  2105 PWs)   bands (ev):

    -5.0024   2.8174   5.1398   5.3220

          k = 0.0000-1.0000 0.0000 (  2100 PWs)   bands (ev):

    -1.5698  -1.5698   3.3901   3.3901

          k =-0.3333-0.6667-0.3333 (  2120 PWs)   bands (ev):

    -3.2244  -0.3619   3.4675   4.4691

          k =-0.5000-1.0000 0.0000 (  2148 PWs)   bands (ev):

    -1.4047  -1.4047   2.3865   2.3865

          k =-0.8333-0.6667-0.3333 (  2117 PWs)   bands (ev):

    -3.3653   0.2208   3.0193   4.1175

          k = 0.2500 0.2500-0.2500 (  2106 PWs)   bands (ev):

    -4.9189   2.3187   5.4891   5.4891

          k =-0.0833 0.5833-0.5833 (  2129 PWs)   bands (ev):

    -3.0493  -0.0567   2.2235   4.5255

          k = 0.2500 0.2500 0.2500 (  2106 PWs)   bands (ev):

    -4.9189   2.3187   5.4891   5.4891

          k =-0.0833 0.5833-0.0833 (  2112 PWs)   bands (ev):

    -4.1991   1.8228   3.8880   4.1075

          k = 0.2500-0.2500 0.2500 (  2106 PWs)   bands (ev):

    -4.9189   2.3187   5.4891   5.4891

          k =-0.0833 0.0833-0.0833 (  2100 PWs)   bands (ev):

    -5.6287   5.3909   6.1079   6.1079

          k =-0.5000-0.5000 0.5000 (  2120 PWs)   bands (ev):

    -3.3835  -0.7283   5.0492   5.0492

          k =-0.8333-0.1667 0.1667 (  2126 PWs)   bands (ev):

    -2.6471  -0.3169   2.6082   3.6890

          k = 0.0000-0.5000 0.0000 (  2085 PWs)   bands (ev):

    -4.6363   2.7341   4.3545   4.3545

          k =-0.3333-0.1667-0.3333 (  2112 PWs)   bands (ev):

    -4.6601   1.8442   4.5558   5.5667

          k =-0.7500-0.2500 0.7500 (  2123 PWs)   bands (ev):

    -2.9973  -0.1361   2.7074   4.0391

          k =-1.0833 0.0833 0.4167 (  2144 PWs)   bands (ev):

    -1.9652  -0.9012   2.1550   2.9366

          k =-0.7500-0.2500-0.7500 (  2123 PWs)   bands (ev):

    -2.9973  -0.1361   2.7074   4.0391

          k =-1.0833 0.0833-1.0833 (  2125 PWs)   bands (ev):

    -2.1674  -0.9020   3.0667   3.4662

          k =-0.7500 0.2500-0.7500 (  2123 PWs)   bands (ev):

    -2.9973  -0.1361   2.7074   4.0391

          k =-1.0833 0.5833-1.0833 (  2106 PWs)   bands (ev):

    -4.9074   3.1242   4.7059   4.7180

          k = 0.7500 0.2500 0.7500 (  2123 PWs)   bands (ev):

    -2.9973  -0.1361   2.7074   4.0391

          k = 0.4167 0.5833 0.4167 (  2114 PWs)   bands (ev):

    -3.3462  -0.6245   4.4651   4.8711

          k =-0.2500 0.7500 0.7500 (  2123 PWs)   bands (ev):

    -2.9973  -0.1361   2.7074   4.0391

          k =-0.5833 1.0833 0.4167 (  2119 PWs)   bands (ev):

    -3.5949   0.5794   2.7277   4.5910

          k =-0.5000 0.0000 0.5000 (  2119 PWs)   bands (ev):

    -3.6727   0.7676   2.4875   4.9192

          k =-0.8333 0.3333 0.1667 (  2126 PWs)   bands (ev):

    -2.5163  -0.4894   2.2913   3.6218

          k =-0.5000 0.0000-0.5000 (  2119 PWs)   bands (ev):

    -3.6727   0.7676   2.4875   4.9192

          k =-0.8333 0.3333-0.8333 (  2119 PWs)   bands (ev):

    -3.6228   0.7921   3.2548   4.0002

     highest occupied level (ev):     6.2527

     Writing output data file Si.save/

                                                                                

     bravais-lattice index     =            2
     lattice parameter (alat)  =      10.2625  a.u.
     unit-cell volume          =     270.2088 (a.u.)^3
     number of atoms/cell      =            2
     number of atomic types    =            1
     kinetic-energy cut-off    =      60.0000  Ry
     charge density cut-off    =     240.0000  Ry
     convergence threshold     =      1.0E-16
     beta                      =       0.7000
     number of iterations used =            4
     Exchange-correlation      = PBE ( 1  4  3  4 0 0)


     celldm(1)=   10.26250  celldm(2)=    0.00000  celldm(3)=    0.00000
     celldm(4)=    0.00000  celldm(5)=    0.00000  celldm(6)=    0.00000

     crystal axes: (cart. coord. in units of alat)
               a(1) = ( -0.5000  0.0000  0.5000 )  
               a(2) = (  0.0000  0.5000  0.5000 )  
               a(3) = ( -0.5000  0.5000  0.0000 )  

     reciprocal axes: (cart. coord. in units 2 pi/alat)
               b(1) = ( -1.0000 -1.0000  1.0000 )  
               b(2) = (  1.0000  1.0000  1.0000 )  
               b(3) = ( -1.0000  1.0000 -1.0000 )  


     Atoms inside the unit cell: 

     Cartesian axes

     site n.  atom      mass           positions (alat units)
        1     Si  28.0850   tau(    1) = (    0.00000    0.00000    0.00000  )
        2     Si  28.0850   tau(    2) = (    0.25000    0.25000    0.25000  )

     Computing dynamical matrix for 
                    q = (  -0.3333333   0.3333333  -0.3333333 )

      6 Sym.Ops. (no q -> -q+G )


     G cutoff =  640.2622  (  16889 G-vectors)     FFT grid: ( 36, 36, 36)
     number of k points=    40

     PseudoPot. # 1 for Si read from file:
     ./Si.pbe-n-rrkjus_psl.0.1.UPF
     MD5 check sum: 7b4bf2ea543dc08298462eff3fb52eea
     Pseudo is Ultrasoft + core correction, Zval =  4.0
     Generated using "atomic" code by A. Dal Corso v.5.0.2 svn rev. 9415
     Using radial grid of 1141 points,  4 beta functions with: 
                l(1) =   0
                l(2) =   0
                l(3) =   1
                l(4) =   1
     Q(r) pseudized with 0 coefficients 


     Mode symmetry, C_3v (3m)   point group:


     Atomic displacements:
     There are   4 irreducible representations

     Representation     1      1 modes -A_1  L_1  To be done

     Representation     2      1 modes -A_1  L_1  To be done

     Representation     3      2 modes -E    L_3  To be done

     Representation     4      2 modes -E    L_3  To be done



     Alpha used in Ewald sum =   2.5000
     PHONON       :   1m14.57s CPU   1m15.23s WALL



     Representation #  1 mode #   1

     Self-consistent Calculation

      iter #   1 total cpu time :    76.9 secs   av.it.:   6.2
      thresh= 1.000E-02 alpha_mix =  0.700 |ddv_scf|^2 =  1.374E-04

      iter #   2 total cpu time :    79.2 secs   av.it.:   9.7
      thresh= 1.172E-03 alpha_mix =  0.700 |ddv_scf|^2 =  1.178E-03

      iter #   3 total cpu time :    81.2 secs   av.it.:   8.1
      thresh= 3.433E-03 alpha_mix =  0.700 |ddv_scf|^2 =  1.859E-07

      iter #   4 total cpu time :    83.4 secs   av.it.:   9.8
      thresh= 4.312E-05 alpha_mix =  0.700 |ddv_scf|^2 =  1.246E-08

      iter #   5 total cpu time :    85.6 secs   av.it.:   9.7
      thresh= 1.116E-05 alpha_mix =  0.700 |ddv_scf|^2 =  1.752E-10

      iter #   6 total cpu time :    87.9 secs   av.it.:   9.9
      thresh= 1.324E-06 alpha_mix =  0.700 |ddv_scf|^2 =  6.786E-12

      iter #   7 total cpu time :    90.3 secs   av.it.:  10.2
      thresh= 2.605E-07 alpha_mix =  0.700 |ddv_scf|^2 =  1.244E-12

      iter #   8 total cpu time :    92.5 secs   av.it.:   9.8
      thresh= 1.115E-07 alpha_mix =  0.700 |ddv_scf|^2 =  4.454E-12

      iter #   9 total cpu time :    94.7 secs   av.it.:   8.8
      thresh= 2.111E-07 alpha_mix =  0.700 |ddv_scf|^2 =  2.876E-14

      iter #  10 total cpu time :    97.1 secs   av.it.:   9.7
      thresh= 1.696E-08 alpha_mix =  0.700 |ddv_scf|^2 =  5.192E-14

      iter #  11 total cpu time :    99.2 secs   av.it.:   8.7
      thresh= 2.278E-08 alpha_mix =  0.700 |ddv_scf|^2 =  2.604E-15

      iter #  12 total cpu time :   101.4 secs   av.it.:   9.6
      thresh= 5.103E-09 alpha_mix =  0.700 |ddv_scf|^2 =  1.119E-16

      iter #  13 total cpu time :   104.7 secs   av.it.:   9.8
      thresh= 1.058E-09 alpha_mix =  0.700 |ddv_scf|^2 =  6.416E-18

     End of self-consistent calculation

     Convergence has been achieved 


     Representation #  2 mode #   2

     Self-consistent Calculation

      iter #   1 total cpu time :   106.5 secs   av.it.:   6.2
      thresh= 1.000E-02 alpha_mix =  0.700 |ddv_scf|^2 =  1.374E-04

      iter #   2 total cpu time :   108.6 secs   av.it.:   9.7
      thresh= 1.172E-03 alpha_mix =  0.700 |ddv_scf|^2 =  1.178E-03

      iter #   3 total cpu time :   110.5 secs   av.it.:   8.1
      thresh= 3.433E-03 alpha_mix =  0.700 |ddv_scf|^2 =  1.859E-07

      iter #   4 total cpu time :   112.6 secs   av.it.:   9.8
      thresh= 4.311E-05 alpha_mix =  0.700 |ddv_scf|^2 =  1.251E-08

      iter #   5 total cpu time :   114.7 secs   av.it.:   9.7
      thresh= 1.119E-05 alpha_mix =  0.700 |ddv_scf|^2 =  1.803E-10

      iter #   6 total cpu time :   116.8 secs   av.it.:  10.0
      thresh= 1.343E-06 alpha_mix =  0.700 |ddv_scf|^2 =  3.275E-11

      iter #   7 total cpu time :   118.9 secs   av.it.:   9.8
      thresh= 5.723E-07 alpha_mix =  0.700 |ddv_scf|^2 =  3.927E-11

      iter #   8 total cpu time :   120.9 secs   av.it.:   9.0
      thresh= 6.267E-07 alpha_mix =  0.700 |ddv_scf|^2 =  3.446E-12

      iter #   9 total cpu time :   122.9 secs   av.it.:   9.2
      thresh= 1.856E-07 alpha_mix =  0.700 |ddv_scf|^2 =  1.733E-12

      iter #  10 total cpu time :   125.0 secs   av.it.:   8.9
      thresh= 1.317E-07 alpha_mix =  0.700 |ddv_scf|^2 =  1.371E-14

      iter #  11 total cpu time :   127.2 secs   av.it.:   9.8
      thresh= 1.171E-08 alpha_mix =  0.700 |ddv_scf|^2 =  3.196E-15

      iter #  12 total cpu time :   129.3 secs   av.it.:   9.8
      thresh= 5.653E-09 alpha_mix =  0.700 |ddv_scf|^2 =  2.586E-16

      iter #  13 total cpu time :   131.5 secs   av.it.:  10.0
      thresh= 1.608E-09 alpha_mix =  0.700 |ddv_scf|^2 =  7.653E-17

     End of self-consistent calculation

     Convergence has been achieved 


     Representation #  3 modes #   3  4

     Self-consistent Calculation

      iter #   1 total cpu time :   134.5 secs   av.it.:   5.3
      thresh= 1.000E-02 alpha_mix =  0.700 |ddv_scf|^2 =  1.016E-07

      iter #   2 total cpu time :   139.4 secs   av.it.:  11.2
      thresh= 3.188E-05 alpha_mix =  0.700 |ddv_scf|^2 =  8.257E-09

      iter #   3 total cpu time :   144.1 secs   av.it.:  11.2
      thresh= 9.087E-06 alpha_mix =  0.700 |ddv_scf|^2 =  6.481E-10

      iter #   4 total cpu time :   147.3 secs   av.it.:  11.2
      thresh= 2.546E-06 alpha_mix =  0.700 |ddv_scf|^2 =  1.455E-12

      iter #   5 total cpu time :   150.5 secs   av.it.:  11.2
      thresh= 1.206E-07 alpha_mix =  0.700 |ddv_scf|^2 =  6.690E-14

      iter #   6 total cpu time :   153.9 secs   av.it.:  11.1
      thresh= 2.586E-08 alpha_mix =  0.700 |ddv_scf|^2 =  9.443E-16

      iter #   7 total cpu time :   156.7 secs   av.it.:  10.9
      thresh= 3.073E-09 alpha_mix =  0.700 |ddv_scf|^2 =  4.453E-17

     End of self-consistent calculation

     Convergence has been achieved 


     Representation #  4 modes #   5  6

     Self-consistent Calculation

      iter #   1 total cpu time :   158.4 secs   av.it.:   5.4
      thresh= 1.000E-02 alpha_mix =  0.700 |ddv_scf|^2 =  1.015E-07

      iter #   2 total cpu time :   161.2 secs   av.it.:  11.1
      thresh= 3.186E-05 alpha_mix =  0.700 |ddv_scf|^2 =  8.203E-09

      iter #   3 total cpu time :   164.2 secs   av.it.:  11.1
      thresh= 9.057E-06 alpha_mix =  0.700 |ddv_scf|^2 =  6.450E-10

      iter #   4 total cpu time :   167.0 secs   av.it.:  11.1
      thresh= 2.540E-06 alpha_mix =  0.700 |ddv_scf|^2 =  1.469E-12

      iter #   5 total cpu time :   170.0 secs   av.it.:  11.2
      thresh= 1.212E-07 alpha_mix =  0.700 |ddv_scf|^2 =  6.824E-14

      iter #   6 total cpu time :   173.2 secs   av.it.:  11.2
      thresh= 2.612E-08 alpha_mix =  0.700 |ddv_scf|^2 =  9.548E-16

      iter #   7 total cpu time :   176.3 secs   av.it.:  10.7
      thresh= 3.090E-09 alpha_mix =  0.700 |ddv_scf|^2 =  4.484E-17

     End of self-consistent calculation

     Convergence has been achieved 

     Number of q in the star =    8
     List of q in the star:
          1  -0.333333333   0.333333333  -0.333333333
          2   0.333333333   0.333333333  -0.333333333
          3   0.333333333   0.333333333   0.333333333
          4  -0.333333333   0.333333333   0.333333333
          5   0.333333333  -0.333333333   0.333333333
          6  -0.333333333  -0.333333333  -0.333333333
          7   0.333333333  -0.333333333  -0.333333333
          8  -0.333333333  -0.333333333   0.333333333

     Diagonalizing the dynamical matrix

     q = (   -0.333333333   0.333333333  -0.333333333 ) 

 **************************************************************************
     freq (    1) =       3.222966 [THz] =     107.506571 [cm-1]
     freq (    2) =       3.222966 [THz] =     107.506571 [cm-1]
     freq (    3) =       8.776965 [THz] =     292.768027 [cm-1]
     freq (    4) =      14.018150 [THz] =     467.595148 [cm-1]
     freq (    5) =      14.913366 [THz] =     497.456334 [cm-1]
     freq (    6) =      14.913366 [THz] =     497.456334 [cm-1]
 **************************************************************************

     Mode symmetry, C_3v (3m)   point group:

     freq (  1 -  2) =        107.5  [cm-1]   --> E    L_3           
     freq (  3 -  3) =        292.8  [cm-1]   --> A_1  L_1           
     freq (  4 -  4) =        467.6  [cm-1]   --> A_1  L_1           
     freq (  5 -  6) =        497.5  [cm-1]   --> E    L_3           

     Calculation of q =    0.0000000   0.6666667   0.0000000

     G-vector sticks info
     --------------------
     sticks:   dense  smooth     PW     G-vecs:    dense   smooth      PW
     Sum         859     859    283                16889    16889    3071



     bravais-lattice index     =            2
     lattice parameter (alat)  =      10.2625  a.u.
     unit-cell volume          =     270.2088 (a.u.)^3
     number of atoms/cell      =            2
     number of atomic types    =            1
     number of electrons       =         8.00
     number of Kohn-Sham states=            4
     kinetic-energy cutoff     =      60.0000  Ry
     charge density cutoff     =     240.0000  Ry
     Exchange-correlation      = PBE ( 1  4  3  4 0 0)

     celldm(1)=  10.262500  celldm(2)=   0.000000  celldm(3)=   0.000000
     celldm(4)=   0.000000  celldm(5)=   0.000000  celldm(6)=   0.000000

     crystal axes: (cart. coord. in units of alat)
               a(1) = (  -0.500000   0.000000   0.500000 )  
               a(2) = (   0.000000   0.500000   0.500000 )  
               a(3) = (  -0.500000   0.500000   0.000000 )  

     reciprocal axes: (cart. coord. in units 2 pi/alat)
               b(1) = ( -1.000000 -1.000000  1.000000 )  
               b(2) = (  1.000000  1.000000  1.000000 )  
               b(3) = ( -1.000000  1.000000 -1.000000 )  


     PseudoPot. # 1 for Si read from file:
     ./Si.pbe-n-rrkjus_psl.0.1.UPF
     MD5 check sum: 7b4bf2ea543dc08298462eff3fb52eea
     Pseudo is Ultrasoft + core correction, Zval =  4.0
     Generated using "atomic" code by A. Dal Corso v.5.0.2 svn rev. 9415
     Using radial grid of 1141 points,  4 beta functions with: 
                l(1) =   0
                l(2) =   0
                l(3) =   1
                l(4) =   1
     Q(r) pseudized with 0 coefficients 


     atomic species   valence    mass     pseudopotential
        Si             4.00    28.08500     Si( 1.00)

     48 Sym. Ops., with inversion, found



   Cartesian axes

     site n.     atom                  positions (alat units)
         1           Si  tau(   1) = (   0.0000000   0.0000000   0.0000000  )
         2           Si  tau(   2) = (   0.2500000   0.2500000   0.2500000  )

     number of k points=    36
                       cart. coord. in units 2pi/alat
        k(    1) = (   0.0000000   0.0000000   0.0000000), wk =   0.0312500
        k(    2) = (   0.0000000   0.6666667   0.0000000), wk =   0.0000000
        k(    3) = (  -0.2500000   0.2500000  -0.2500000), wk =   0.1250000
        k(    4) = (  -0.2500000   0.9166667  -0.2500000), wk =   0.0000000
        k(    5) = (   0.5000000  -0.5000000   0.5000000), wk =   0.1250000
        k(    6) = (   0.5000000   0.1666667   0.5000000), wk =   0.0000000
        k(    7) = (   0.0000000   0.5000000   0.0000000), wk =   0.0312500
        k(    8) = (   0.0000000   1.1666667   0.0000000), wk =   0.0000000
        k(    9) = (   0.7500000  -0.2500000   0.7500000), wk =   0.1250000
        k(   10) = (   0.7500000   0.4166667   0.7500000), wk =   0.0000000
        k(   11) = (   0.5000000   0.0000000   0.5000000), wk =   0.1250000
        k(   12) = (   0.5000000   0.6666667   0.5000000), wk =   0.0000000
        k(   13) = (   0.0000000  -1.0000000   0.0000000), wk =   0.0312500
        k(   14) = (   0.0000000  -0.3333333   0.0000000), wk =   0.0000000
        k(   15) = (  -0.5000000  -1.0000000   0.0000000), wk =   0.1250000
        k(   16) = (  -0.5000000  -0.3333333   0.0000000), wk =   0.0000000
        k(   17) = (   0.2500000  -0.2500000   0.2500000), wk =   0.1250000
        k(   18) = (   0.2500000   0.4166667   0.2500000), wk =   0.0000000
        k(   19) = (  -0.5000000   0.0000000   0.0000000), wk =   0.1250000
        k(   20) = (  -0.5000000   0.6666667   0.0000000), wk =   0.0000000
        k(   21) = (   0.0000000  -0.5000000   0.0000000), wk =   0.0312500
        k(   22) = (   0.0000000   0.1666667   0.0000000), wk =   0.0000000
        k(   23) = (   0.2500000  -0.7500000   0.7500000), wk =   0.2500000
        k(   24) = (   0.2500000  -0.0833333   0.7500000), wk =   0.0000000
        k(   25) = (  -0.7500000   0.2500000  -0.7500000), wk =   0.1250000
        k(   26) = (  -0.7500000   0.9166667  -0.7500000), wk =   0.0000000
        k(   27) = (  -0.7500000   0.7500000  -0.2500000), wk =   0.2500000
        k(   28) = (  -0.7500000   1.4166667  -0.2500000), wk =   0.0000000
        k(   29) = (   0.0000000  -0.5000000   0.5000000), wk =   0.1250000
        k(   30) = (   0.0000000   0.1666667   0.5000000), wk =   0.0000000
        k(   31) = (  -0.5000000   0.5000000   0.0000000), wk =   0.1250000
        k(   32) = (  -0.5000000   1.1666667   0.0000000), wk =   0.0000000
        k(   33) = (   1.0000000   0.0000000   0.0000000), wk =   0.0625000
        k(   34) = (   1.0000000   0.6666667   0.0000000), wk =   0.0000000
        k(   35) = (   0.0000000  -0.5000000  -1.0000000), wk =   0.0625000
        k(   36) = (   0.0000000   0.1666667  -1.0000000), wk =   0.0000000

     Dense  grid:    16889 G-vectors     FFT dimensions: (  36,  36,  36)

     Estimated max dynamical RAM per process >      18.33 MB

     The potential is recalculated from file :
     ./tmp/_ph0/Si.save/charge-density

     Starting wfcs are    8 atomic wfcs

     Band Structure Calculation
     Davidson diagonalization with overlap

     ethr =  1.25E-10,  avg # of iterations = 11.5

     total cpu time spent up to now is        8.0 secs

     End of band structure calculation

          k = 0.0000 0.0000 0.0000 (  2109 PWs)   bands (ev):

    -5.7199   6.2527   6.2527   6.2527

          k = 0.0000 0.6667 0.0000 (  2108 PWs)   bands (ev):

    -3.8129   1.2393   3.8256   3.8256

          k =-0.2500 0.2500-0.2500 (  2106 PWs)   bands (ev):

    -4.9189   2.3187   5.4891   5.4891

          k =-0.2500 0.9167-0.2500 (  2125 PWs)   bands (ev):

    -2.1766  -0.8093   2.0280   3.8432

          k = 0.5000-0.5000 0.5000 (  2120 PWs)   bands (ev):

    -3.3835  -0.7283   5.0492   5.0492

          k = 0.5000 0.1667 0.5000 (  2122 PWs)   bands (ev):

    -3.6104   0.2386   3.1957   4.9499

          k = 0.0000 0.5000 0.0000 (  2085 PWs)   bands (ev):

    -4.6363   2.7341   4.3545   4.3545

          k = 0.0000 1.1667 0.0000 (  2120 PWs)   bands (ev):

    -2.7820  -0.2133   3.4999   3.4999

          k = 0.7500-0.2500 0.7500 (  2123 PWs)   bands (ev):

    -2.9973  -0.1361   2.7074   4.0391

          k = 0.7500 0.4167 0.7500 (  2119 PWs)   bands (ev):

    -3.8095   0.5743   3.8128   4.4149

          k = 0.5000 0.0000 0.5000 (  2119 PWs)   bands (ev):

    -3.6727   0.7676   2.4875   4.9192

          k = 0.5000 0.6667 0.5000 (  2115 PWs)   bands (ev):

    -3.4675  -0.4463   4.3692   5.0148

          k = 0.0000-1.0000 0.0000 (  2100 PWs)   bands (ev):

    -1.5698  -1.5698   3.3901   3.3901

          k = 0.0000-0.3333 0.0000 (  2105 PWs)   bands (ev):

    -5.2350   4.2135   5.0534   5.0534

          k =-0.5000-1.0000 0.0000 (  2148 PWs)   bands (ev):

    -1.4047  -1.4047   2.3865   2.3865

          k =-0.5000-0.3333 0.0000 (  2121 PWs)   bands (ev):

    -4.1987   1.5604   3.1428   4.9745

          k = 0.2500-0.2500 0.2500 (  2106 PWs)   bands (ev):

    -4.9189   2.3187   5.4891   5.4891

          k = 0.2500 0.4167 0.2500 (  2117 PWs)   bands (ev):

    -4.4655   1.3792   4.9295   4.9679

          k =-0.5000 0.0000 0.0000 (  2085 PWs)   bands (ev):

    -4.6363   2.7341   4.3545   4.3545

          k =-0.5000 0.6667 0.0000 (  2137 PWs)   bands (ev):

    -2.9838   0.0307   2.0885   4.1674

          k = 0.0000-0.5000 0.0000 (  2085 PWs)   bands (ev):

    -4.6363   2.7341   4.3545   4.3545

          k = 0.0000 0.1667 0.0000 (  2117 PWs)   bands (ev):

    -5.5982   5.5582   5.8195   5.8195

          k = 0.2500-0.7500 0.7500 (  2123 PWs)   bands (ev):

    -2.9973  -0.1361   2.7074   4.0391

          k = 0.2500-0.0833 0.7500 (  2123 PWs)   bands (ev):

    -3.1072   0.2270   2.8135   3.6137

          k =-0.7500 0.2500-0.7500 (  2123 PWs)   bands (ev):

    -2.9973  -0.1361   2.7074   4.0391

          k =-0.7500 0.9167-0.7500 (  2111 PWs)   bands (ev):

    -5.1497   3.3048   4.8600   5.8976

          k =-0.7500 0.7500-0.2500 (  2123 PWs)   bands (ev):

    -2.9973  -0.1361   2.7074   4.0391

          k =-0.7500 1.4167-0.2500 (  2123 PWs)   bands (ev):

    -2.8669  -0.4878   2.7734   4.0994

          k = 0.0000-0.5000 0.5000 (  2119 PWs)   bands (ev):

    -3.6727   0.7676   2.4875   4.9192

          k = 0.0000 0.1667 0.5000 (  2111 PWs)   bands (ev):

    -4.5256   2.3297   3.9134   4.6190

          k =-0.5000 0.5000 0.0000 (  2119 PWs)   bands (ev):

    -3.6727   0.7676   2.4875   4.9192

          k =-0.5000 1.1667 0.0000 (  2136 PWs)   bands (ev):

    -2.1971  -0.6712   2.0299   3.1623

          k = 1.0000 0.0000 0.0000 (  2100 PWs)   bands (ev):

    -1.5698  -1.5698   3.3901   3.3901

          k = 1.0000 0.6667 0.0000 (  2138 PWs)   bands (ev):

    -1.4491  -1.4491   2.5951   2.5951

          k = 0.0000-0.5000-1.0000 (  2148 PWs)   bands (ev):

    -1.4047  -1.4047   2.3865   2.3865

          k = 0.0000 0.1667-1.0000 (  2126 PWs)   bands (ev):

    -1.5314  -1.5314   3.0826   3.0826

     highest occupied level (ev):     6.2527

     Writing output data file Si.save/

                                                                                

     bravais-lattice index     =            2
     lattice parameter (alat)  =      10.2625  a.u.
     unit-cell volume          =     270.2088 (a.u.)^3
     number of atoms/cell      =            2
     number of atomic types    =            1
     kinetic-energy cut-off    =      60.0000  Ry
     charge density cut-off    =     240.0000  Ry
     convergence threshold     =      1.0E-16
     beta                      =       0.7000
     number of iterations used =            4
     Exchange-correlation      = PBE ( 1  4  3  4 0 0)


     celldm(1)=   10.26250  celldm(2)=    0.00000  celldm(3)=    0.00000
     celldm(4)=    0.00000  celldm(5)=    0.00000  celldm(6)=    0.00000

     crystal axes: (cart. coord. in units of alat)
               a(1) = ( -0.5000  0.0000  0.5000 )  
               a(2) = (  0.0000  0.5000  0.5000 )  
               a(3) = ( -0.5000  0.5000  0.0000 )  

     reciprocal axes: (cart. coord. in units 2 pi/alat)
               b(1) = ( -1.0000 -1.0000  1.0000 )  
               b(2) = (  1.0000  1.0000  1.0000 )  
               b(3) = ( -1.0000  1.0000 -1.0000 )  


     Atoms inside the unit cell: 

     Cartesian axes

     site n.  atom      mass           positions (alat units)
        1     Si  28.0850   tau(    1) = (    0.00000    0.00000    0.00000  )
        2     Si  28.0850   tau(    2) = (    0.25000    0.25000    0.25000  )

     Computing dynamical matrix for 
                    q = (   0.0000000   0.6666667   0.0000000 )

      8 Sym.Ops. (no q -> -q+G )


     G cutoff =  640.2622  (  16889 G-vectors)     FFT grid: ( 36, 36, 36)
     number of k points=    36

     PseudoPot. # 1 for Si read from file:
     ./Si.pbe-n-rrkjus_psl.0.1.UPF
     MD5 check sum: 7b4bf2ea543dc08298462eff3fb52eea
     Pseudo is Ultrasoft + core correction, Zval =  4.0
     Generated using "atomic" code by A. Dal Corso v.5.0.2 svn rev. 9415
     Using radial grid of 1141 points,  4 beta functions with: 
                l(1) =   0
                l(2) =   0
                l(3) =   1
                l(4) =   1
     Q(r) pseudized with 0 coefficients 


     Mode symmetry, C_4v (4mm)  point group:


     Atomic displacements:
     There are   4 irreducible representations

     Representation     1      1 modes -A_1  G_1 D_1  To be done

     Representation     2      1 modes -B_2  G_4 D_2'  To be done

     Representation     3      2 modes -E    G_5 D_5  To be done

     Representation     4      2 modes -E    G_5 D_5  To be done



     Alpha used in Ewald sum =   2.5000
     PHONON       :   2m59.08s CPU   3m 0.57s WALL



     Representation #  1 mode #   1

     Self-consistent Calculation

      iter #   1 total cpu time :   181.5 secs   av.it.:   5.9
      thresh= 1.000E-02 alpha_mix =  0.700 |ddv_scf|^2 =  1.378E-04

      iter #   2 total cpu time :   182.6 secs   av.it.:   9.3
      thresh= 1.174E-03 alpha_mix =  0.700 |ddv_scf|^2 =  9.134E-04

      iter #   3 total cpu time :   183.6 secs   av.it.:   8.2
      thresh= 3.022E-03 alpha_mix =  0.700 |ddv_scf|^2 =  1.808E-08

      iter #   4 total cpu time :   184.7 secs   av.it.:   9.2
      thresh= 1.344E-05 alpha_mix =  0.700 |ddv_scf|^2 =  8.157E-10

      iter #   5 total cpu time :   185.8 secs   av.it.:   9.5
      thresh= 2.856E-06 alpha_mix =  0.700 |ddv_scf|^2 =  3.705E-11

      iter #   6 total cpu time :   187.0 secs   av.it.:   9.6
      thresh= 6.087E-07 alpha_mix =  0.700 |ddv_scf|^2 =  6.688E-13

      iter #   7 total cpu time :   188.1 secs   av.it.:   9.4
      thresh= 8.178E-08 alpha_mix =  0.700 |ddv_scf|^2 =  6.779E-15

      iter #   8 total cpu time :   189.3 secs   av.it.:   9.3
      thresh= 8.233E-09 alpha_mix =  0.700 |ddv_scf|^2 =  9.819E-17

     End of self-consistent calculation

     Convergence has been achieved 


     Representation #  2 mode #   2

     Self-consistent Calculation

      iter #   1 total cpu time :   190.1 secs   av.it.:   5.4
      thresh= 1.000E-02 alpha_mix =  0.700 |ddv_scf|^2 =  1.782E-06

      iter #   2 total cpu time :   191.2 secs   av.it.:   9.9
      thresh= 1.335E-04 alpha_mix =  0.700 |ddv_scf|^2 =  6.860E-07

      iter #   3 total cpu time :   192.3 secs   av.it.:   9.4
      thresh= 8.283E-05 alpha_mix =  0.700 |ddv_scf|^2 =  7.401E-09

      iter #   4 total cpu time :   193.5 secs   av.it.:   9.4
      thresh= 8.603E-06 alpha_mix =  0.700 |ddv_scf|^2 =  1.306E-10

      iter #   5 total cpu time :   194.6 secs   av.it.:  10.0
      thresh= 1.143E-06 alpha_mix =  0.700 |ddv_scf|^2 =  1.580E-12

      iter #   6 total cpu time :   195.9 secs   av.it.:   9.6
      thresh= 1.257E-07 alpha_mix =  0.700 |ddv_scf|^2 =  1.807E-14

      iter #   7 total cpu time :   197.0 secs   av.it.:   9.3
      thresh= 1.344E-08 alpha_mix =  0.700 |ddv_scf|^2 =  3.160E-16

      iter #   8 total cpu time :   198.1 secs   av.it.:   9.4
      thresh= 1.778E-09 alpha_mix =  0.700 |ddv_scf|^2 =  1.590E-17

     End of self-consistent calculation

     Convergence has been achieved 


     Representation #  3 modes #   3  4

     Self-consistent Calculation

      iter #   1 total cpu time :   199.6 secs   av.it.:   5.6
      thresh= 1.000E-02 alpha_mix =  0.700 |ddv_scf|^2 =  2.579E-07

      iter #   2 total cpu time :   202.4 secs   av.it.:  10.9
      thresh= 5.079E-05 alpha_mix =  0.700 |ddv_scf|^2 =  4.907E-08

      iter #   3 total cpu time :   205.2 secs   av.it.:  10.6
      thresh= 2.215E-05 alpha_mix =  0.700 |ddv_scf|^2 =  1.364E-09

      iter #   4 total cpu time :   207.6 secs   av.it.:  10.6
      thresh= 3.694E-06 alpha_mix =  0.700 |ddv_scf|^2 =  1.800E-12

      iter #   5 total cpu time :   210.4 secs   av.it.:  10.8
      thresh= 1.342E-07 alpha_mix =  0.700 |ddv_scf|^2 =  4.543E-14

      iter #   6 total cpu time :   213.0 secs   av.it.:  10.6
      thresh= 2.131E-08 alpha_mix =  0.700 |ddv_scf|^2 =  5.736E-16

      iter #   7 total cpu time :   215.3 secs   av.it.:  10.7
      thresh= 2.395E-09 alpha_mix =  0.700 |ddv_scf|^2 =  5.802E-18

     End of self-consistent calculation

     Convergence has been achieved 


     Representation #  4 modes #   5  6

     Self-consistent Calculation

      iter #   1 total cpu time :   217.1 secs   av.it.:   5.4
      thresh= 1.000E-02 alpha_mix =  0.700 |ddv_scf|^2 =  1.855E-07

      iter #   2 total cpu time :   219.7 secs   av.it.:  11.0
      thresh= 4.307E-05 alpha_mix =  0.700 |ddv_scf|^2 =  3.317E-08

      iter #   3 total cpu time :   222.1 secs   av.it.:  10.8
      thresh= 1.821E-05 alpha_mix =  0.700 |ddv_scf|^2 =  1.329E-09

      iter #   4 total cpu time :   224.6 secs   av.it.:  10.7
      thresh= 3.646E-06 alpha_mix =  0.700 |ddv_scf|^2 =  2.045E-12

      iter #   5 total cpu time :   227.3 secs   av.it.:  10.9
      thresh= 1.430E-07 alpha_mix =  0.700 |ddv_scf|^2 =  4.651E-14

      iter #   6 total cpu time :   229.7 secs   av.it.:  10.8
      thresh= 2.157E-08 alpha_mix =  0.700 |ddv_scf|^2 =  6.676E-16

      iter #   7 total cpu time :   233.0 secs   av.it.:  10.8
      thresh= 2.584E-09 alpha_mix =  0.700 |ddv_scf|^2 =  5.703E-18

     End of self-consistent calculation

     Convergence has been achieved 

     Number of q in the star =    6
     List of q in the star:
          1   0.000000000   0.666666667   0.000000000
          2  -0.666666667   0.000000000   0.000000000
          3   0.000000000  -0.666666667   0.000000000
          4   0.000000000   0.000000000   0.666666667
          5   0.000000000   0.000000000  -0.666666667
          6   0.666666667   0.000000000   0.000000000

     Diagonalizing the dynamical matrix

     q = (    0.000000000   0.666666667   0.000000000 ) 

 **************************************************************************
     freq (    1) =       4.305312 [THz] =     143.609761 [cm-1]
     freq (    2) =       4.305312 [THz] =     143.609761 [cm-1]
     freq (    3) =       9.167528 [THz] =     305.795811 [cm-1]
     freq (    4) =      14.054729 [THz] =     468.815310 [cm-1]
     freq (    5) =      14.054729 [THz] =     468.815310 [cm-1]
     freq (    6) =      14.334738 [THz] =     478.155391 [cm-1]
 **************************************************************************

     Mode symmetry, C_4v (4mm)  point group:

     freq (  1 -  2) =        143.6  [cm-1]   --> E    G_5 D_5       
     freq (  3 -  3) =        305.8  [cm-1]   --> A_1  G_1 D_1       
     freq (  4 -  5) =        468.8  [cm-1]   --> E    G_5 D_5       
     freq (  6 -  6) =        478.2  [cm-1]   --> B_2  G_4 D_2'      

     Calculation of q =    0.6666667  -0.0000000   0.6666667

     G-vector sticks info
     --------------------
     sticks:   dense  smooth     PW     G-vecs:    dense   smooth      PW
     Sum         859     859    295                16889    16889    3287



     bravais-lattice index     =            2
     lattice parameter (alat)  =      10.2625  a.u.
     unit-cell volume          =     270.2088 (a.u.)^3
     number of atoms/cell      =            2
     number of atomic types    =            1
     number of electrons       =         8.00
     number of Kohn-Sham states=            4
     kinetic-energy cutoff     =      60.0000  Ry
     charge density cutoff     =     240.0000  Ry
     Exchange-correlation      = PBE ( 1  4  3  4 0 0)

     celldm(1)=  10.262500  celldm(2)=   0.000000  celldm(3)=   0.000000
     celldm(4)=   0.000000  celldm(5)=   0.000000  celldm(6)=   0.000000

     crystal axes: (cart. coord. in units of alat)
               a(1) = (  -0.500000   0.000000   0.500000 )  
               a(2) = (   0.000000   0.500000   0.500000 )  
               a(3) = (  -0.500000   0.500000   0.000000 )  

     reciprocal axes: (cart. coord. in units 2 pi/alat)
               b(1) = ( -1.000000 -1.000000  1.000000 )  
               b(2) = (  1.000000  1.000000  1.000000 )  
               b(3) = ( -1.000000  1.000000 -1.000000 )  


     PseudoPot. # 1 for Si read from file:
     ./Si.pbe-n-rrkjus_psl.0.1.UPF
     MD5 check sum: 7b4bf2ea543dc08298462eff3fb52eea
     Pseudo is Ultrasoft + core correction, Zval =  4.0
     Generated using "atomic" code by A. Dal Corso v.5.0.2 svn rev. 9415
     Using radial grid of 1141 points,  4 beta functions with: 
                l(1) =   0
                l(2) =   0
                l(3) =   1
                l(4) =   1
     Q(r) pseudized with 0 coefficients 


     atomic species   valence    mass     pseudopotential
        Si             4.00    28.08500     Si( 1.00)

     48 Sym. Ops., with inversion, found



   Cartesian axes

     site n.     atom                  positions (alat units)
         1           Si  tau(   1) = (   0.0000000   0.0000000   0.0000000  )
         2           Si  tau(   2) = (   0.2500000   0.2500000   0.2500000  )

     number of k points=    52
                       cart. coord. in units 2pi/alat
        k(    1) = (   0.0000000   0.0000000   0.0000000), wk =   0.0312500
        k(    2) = (   0.6666667  -0.0000000   0.6666667), wk =   0.0000000
        k(    3) = (  -0.2500000   0.2500000  -0.2500000), wk =   0.0625000
        k(    4) = (   0.4166667   0.2500000   0.4166667), wk =   0.0000000
        k(    5) = (   0.5000000  -0.5000000   0.5000000), wk =   0.0625000
        k(    6) = (   1.1666667  -0.5000000   1.1666667), wk =   0.0000000
        k(    7) = (   0.0000000   0.5000000   0.0000000), wk =   0.0625000
        k(    8) = (   0.6666667   0.5000000   0.6666667), wk =   0.0000000
        k(    9) = (   0.7500000  -0.2500000   0.7500000), wk =   0.0625000
        k(   10) = (   1.4166667  -0.2500000   1.4166667), wk =   0.0000000
        k(   11) = (   0.5000000   0.0000000   0.5000000), wk =   0.0312500
        k(   12) = (   1.1666667  -0.0000000   1.1666667), wk =   0.0000000
        k(   13) = (   0.0000000  -1.0000000   0.0000000), wk =   0.0312500
        k(   14) = (   0.6666667  -1.0000000   0.6666667), wk =   0.0000000
        k(   15) = (  -0.5000000  -1.0000000   0.0000000), wk =   0.0625000
        k(   16) = (   0.1666667  -1.0000000   0.6666667), wk =   0.0000000
        k(   17) = (  -0.2500000   0.2500000   0.2500000), wk =   0.1250000
        k(   18) = (   0.4166667   0.2500000   0.9166667), wk =   0.0000000
        k(   19) = (   0.2500000   0.2500000   0.2500000), wk =   0.0625000
        k(   20) = (   0.9166667   0.2500000   0.9166667), wk =   0.0000000
        k(   21) = (   0.5000000  -0.5000000  -0.5000000), wk =   0.0625000
        k(   22) = (   1.1666667  -0.5000000   0.1666667), wk =   0.0000000
        k(   23) = (  -0.5000000   0.0000000   0.0000000), wk =   0.0625000
        k(   24) = (   0.1666667  -0.0000000   0.6666667), wk =   0.0000000
        k(   25) = (   0.0000000   0.0000000   0.5000000), wk =   0.0625000
        k(   26) = (   0.6666667  -0.0000000   1.1666667), wk =   0.0000000
        k(   27) = (   0.7500000  -0.2500000  -0.7500000), wk =   0.1250000
        k(   28) = (   1.4166667  -0.2500000  -0.0833333), wk =   0.0000000
        k(   29) = (  -0.7500000  -0.2500000  -0.7500000), wk =   0.0625000
        k(   30) = (  -0.0833333  -0.2500000  -0.0833333), wk =   0.0000000
        k(   31) = (   0.2500000  -0.7500000   0.7500000), wk =   0.1250000
        k(   32) = (   0.9166667  -0.7500000   1.4166667), wk =   0.0000000
        k(   33) = (  -0.7500000   0.7500000  -0.2500000), wk =   0.1250000
        k(   34) = (  -0.0833333   0.7500000   0.4166667), wk =   0.0000000
        k(   35) = (  -0.7500000  -0.7500000   0.2500000), wk =   0.1250000
        k(   36) = (  -0.0833333  -0.7500000   0.9166667), wk =   0.0000000
        k(   37) = (   0.7500000  -0.7500000  -0.2500000), wk =   0.1250000
        k(   38) = (   1.4166667  -0.7500000   0.4166667), wk =   0.0000000
        k(   39) = (   0.5000000   0.0000000  -0.5000000), wk =   0.0625000
        k(   40) = (   1.1666667  -0.0000000   0.1666667), wk =   0.0000000
        k(   41) = (  -0.5000000   0.0000000  -0.5000000), wk =   0.0312500
        k(   42) = (   0.1666667  -0.0000000   0.1666667), wk =   0.0000000
        k(   43) = (   0.0000000  -0.5000000   0.5000000), wk =   0.1250000
        k(   44) = (   0.6666667  -0.5000000   1.1666667), wk =   0.0000000
        k(   45) = (  -0.5000000   0.5000000   0.0000000), wk =   0.1250000
        k(   46) = (   0.1666667   0.5000000   0.6666667), wk =   0.0000000
        k(   47) = (   1.0000000   0.0000000   0.0000000), wk =   0.0625000
        k(   48) = (   1.6666667  -0.0000000   0.6666667), wk =   0.0000000
        k(   49) = (   0.0000000  -1.0000000   0.5000000), wk =   0.0625000
        k(   50) = (   0.6666667  -1.0000000   1.1666667), wk =   0.0000000
        k(   51) = (   0.0000000  -0.5000000  -1.0000000), wk =   0.0625000
        k(   52) = (   0.6666667  -0.5000000  -0.3333333), wk =   0.0000000

     Dense  grid:    16889 G-vectors     FFT dimensions: (  36,  36,  36)

     Estimated max dynamical RAM per process >      18.34 MB

     The potential is recalculated from file :
     ./tmp/_ph0/Si.save/charge-density

     Starting wfcs are    8 atomic wfcs

     Band Structure Calculation
     Davidson diagonalization with overlap

     ethr =  1.25E-10,  avg # of iterations = 11.6

     total cpu time spent up to now is       12.1 secs

     End of band structure calculation

          k = 0.0000 0.0000 0.0000 (  2109 PWs)   bands (ev):

    -5.7199   6.2527   6.2527   6.2527

          k = 0.6667-0.0000 0.6667 (  2121 PWs)   bands (ev):

    -2.4499  -0.5230   1.8256   4.1326

          k =-0.2500 0.2500-0.2500 (  2106 PWs)   bands (ev):

    -4.9189   2.3187   5.4891   5.4891

          k = 0.4167 0.2500 0.4167 (  2115 PWs)   bands (ev):

    -4.0510   0.5279   4.3962   5.2554

          k = 0.5000-0.5000 0.5000 (  2120 PWs)   bands (ev):

    -3.3835  -0.7283   5.0492   5.0492

          k = 1.1667-0.5000 1.1667 (  2106 PWs)   bands (ev):

    -4.4185   1.8112   4.2528   4.4989

          k = 0.0000 0.5000 0.0000 (  2085 PWs)   bands (ev):

    -4.6363   2.7341   4.3545   4.3545

          k = 0.6667 0.5000 0.6667 (  2116 PWs)   bands (ev):

    -3.8385   0.1471   4.6708   4.8398

          k = 0.7500-0.2500 0.7500 (  2123 PWs)   bands (ev):

    -2.9973  -0.1361   2.7074   4.0391

          k = 1.4167-0.2500 1.4167 (  2117 PWs)   bands (ev):

    -3.1095  -0.5223   3.2529   4.6538

          k = 0.5000 0.0000 0.5000 (  2119 PWs)   bands (ev):

    -3.6727   0.7676   2.4875   4.9192

          k = 1.1667-0.0000 1.1667 (  2131 PWs)   bands (ev):

    -1.7102  -1.3070   2.3938   3.5836

          k = 0.0000-1.0000 0.0000 (  2100 PWs)   bands (ev):

    -1.5698  -1.5698   3.3901   3.3901

          k = 0.6667-1.0000 0.6667 (  2109 PWs)   bands (ev):

    -4.7690   2.5312   3.8302   5.6853

          k =-0.5000-1.0000 0.0000 (  2148 PWs)   bands (ev):

    -1.4047  -1.4047   2.3865   2.3865

          k = 0.1667-1.0000 0.6667 (  2128 PWs)   bands (ev):

    -2.4897  -0.3939   2.4716   3.0912

          k =-0.2500 0.2500 0.2500 (  2106 PWs)   bands (ev):

    -4.9189   2.3187   5.4891   5.4891

          k = 0.4167 0.2500 0.9167 (  2125 PWs)   bands (ev):

    -2.4449  -0.5608   2.0018   3.8210

          k = 0.2500 0.2500 0.2500 (  2106 PWs)   bands (ev):

    -4.9189   2.3187   5.4891   5.4891

          k = 0.9167 0.2500 0.9167 (  2116 PWs)   bands (ev):

    -3.2773   0.4526   3.3383   3.6827

          k = 0.5000-0.5000-0.5000 (  2120 PWs)   bands (ev):

    -3.3835  -0.7283   5.0492   5.0492

          k = 1.1667-0.5000 0.1667 (  2122 PWs)   bands (ev):

    -2.4398  -0.5968   2.2308   3.4804

          k =-0.5000 0.0000 0.0000 (  2085 PWs)   bands (ev):

    -4.6363   2.7341   4.3545   4.3545

          k = 0.1667-0.0000 0.6667 (  2114 PWs)   bands (ev):

    -3.7140   1.0636   3.4027   3.8315

          k = 0.0000 0.0000 0.5000 (  2085 PWs)   bands (ev):

    -4.6363   2.7341   4.3545   4.3545

          k = 0.6667-0.0000 1.1667 (  2132 PWs)   bands (ev):

    -1.9182  -1.0076   1.9880   3.4688

          k = 0.7500-0.2500-0.7500 (  2123 PWs)   bands (ev):

    -2.9973  -0.1361   2.7074   4.0391

          k = 1.4167-0.2500-0.0833 (  2111 PWs)   bands (ev):

    -3.9921   1.2776   3.3756   4.3292

          k =-0.7500-0.2500-0.7500 (  2123 PWs)   bands (ev):

    -2.9973  -0.1361   2.7074   4.0391

          k =-0.0833-0.2500-0.0833 (  2109 PWs)   bands (ev):

    -5.3869   4.3213   5.4539   5.6465

          k = 0.2500-0.7500 0.7500 (  2123 PWs)   bands (ev):

    -2.9973  -0.1361   2.7074   4.0391

          k = 0.9167-0.7500 1.4167 (  2109 PWs)   bands (ev):

    -4.6807   2.2792   4.0778   5.2669

          k =-0.7500 0.7500-0.2500 (  2123 PWs)   bands (ev):

    -2.9973  -0.1361   2.7074   4.0391

          k =-0.0833 0.7500 0.4167 (  2127 PWs)   bands (ev):

    -2.8013  -0.1662   2.3236   3.6103

          k =-0.7500-0.7500 0.2500 (  2123 PWs)   bands (ev):

    -2.9973  -0.1361   2.7074   4.0391

          k =-0.0833-0.7500 0.9167 (  2130 PWs)   bands (ev):

    -2.0740  -0.8934   2.4875   3.2710

          k = 0.7500-0.7500-0.2500 (  2123 PWs)   bands (ev):

    -2.9973  -0.1361   2.7074   4.0391

          k = 1.4167-0.7500 0.4167 (  2115 PWs)   bands (ev):

    -3.4811  -0.1167   3.6819   4.6905

          k = 0.5000 0.0000-0.5000 (  2119 PWs)   bands (ev):

    -3.6727   0.7676   2.4875   4.9192

          k = 1.1667-0.0000 0.1667 (  2129 PWs)   bands (ev):

    -2.7043  -0.2497   3.1182   3.3149

          k =-0.5000 0.0000-0.5000 (  2119 PWs)   bands (ev):

    -3.6727   0.7676   2.4875   4.9192

          k = 0.1667-0.0000 0.1667 (  2111 PWs)   bands (ev):

    -5.4776   4.6599   5.3835   6.1342

          k = 0.0000-0.5000 0.5000 (  2119 PWs)   bands (ev):

    -3.6727   0.7676   2.4875   4.9192

          k = 0.6667-0.5000 1.1667 (  2121 PWs)   bands (ev):

    -4.1044   0.9753   3.8088   4.9381

          k =-0.5000 0.5000 0.0000 (  2119 PWs)   bands (ev):

    -3.6727   0.7676   2.4875   4.9192

          k = 0.1667 0.5000 0.6667 (  2127 PWs)   bands (ev):

    -3.0031  -0.3000   2.6545   4.2728

          k = 1.0000 0.0000 0.0000 (  2100 PWs)   bands (ev):

    -1.5698  -1.5698   3.3901   3.3901

          k = 1.6667-0.0000 0.6667 (  2113 PWs)   bands (ev):

    -3.4269   0.6050   2.6710   3.9486

          k = 0.0000-1.0000 0.5000 (  2148 PWs)   bands (ev):

    -1.4047  -1.4047   2.3865   2.3865

          k = 0.6667-1.0000 1.1667 (  2103 PWs)   bands (ev):

    -5.1178   3.5222   4.6106   5.5432

          k = 0.0000-0.5000-1.0000 (  2148 PWs)   bands (ev):

    -1.4047  -1.4047   2.3865   2.3865

          k = 0.6667-0.5000-0.3333 (  2118 PWs)   bands (ev):

    -3.1416  -0.6164   3.6466   4.5983

     highest occupied level (ev):     6.2527

     Writing output data file Si.save/

                                                                                

     bravais-lattice index     =            2
     lattice parameter (alat)  =      10.2625  a.u.
     unit-cell volume          =     270.2088 (a.u.)^3
     number of atoms/cell      =            2
     number of atomic types    =            1
     kinetic-energy cut-off    =      60.0000  Ry
     charge density cut-off    =     240.0000  Ry
     convergence threshold     =      1.0E-16
     beta                      =       0.7000
     number of iterations used =            4
     Exchange-correlation      = PBE ( 1  4  3  4 0 0)


     celldm(1)=   10.26250  celldm(2)=    0.00000  celldm(3)=    0.00000
     celldm(4)=    0.00000  celldm(5)=    0.00000  celldm(6)=    0.00000

     crystal axes: (cart. coord. in units of alat)
               a(1) = ( -0.5000  0.0000  0.5000 )  
               a(2) = (  0.0000  0.5000  0.5000 )  
               a(3) = ( -0.5000  0.5000  0.0000 )  

     reciprocal axes: (cart. coord. in units 2 pi/alat)
               b(1) = ( -1.0000 -1.0000  1.0000 )  
               b(2) = (  1.0000  1.0000  1.0000 )  
               b(3) = ( -1.0000  1.0000 -1.0000 )  


     Atoms inside the unit cell: 

     Cartesian axes

     site n.  atom      mass           positions (alat units)
        1     Si  28.0850   tau(    1) = (    0.00000    0.00000    0.00000  )
        2     Si  28.0850   tau(    2) = (    0.25000    0.25000    0.25000  )

     Computing dynamical matrix for 
                    q = (   0.6666667  -0.0000000   0.6666667 )

      4 Sym.Ops. (no q -> -q+G )


     G cutoff =  640.2622  (  16889 G-vectors)     FFT grid: ( 36, 36, 36)
     number of k points=    52

     PseudoPot. # 1 for Si read from file:
     ./Si.pbe-n-rrkjus_psl.0.1.UPF
     MD5 check sum: 7b4bf2ea543dc08298462eff3fb52eea
     Pseudo is Ultrasoft + core correction, Zval =  4.0
     Generated using "atomic" code by A. Dal Corso v.5.0.2 svn rev. 9415
     Using radial grid of 1141 points,  4 beta functions with: 
                l(1) =   0
                l(2) =   0
                l(3) =   1
                l(4) =   1
     Q(r) pseudized with 0 coefficients 


     Mode symmetry, C_2v (mm2)  point group:


     Atomic displacements:
     There are   6 irreducible representations

     Representation     1      1 modes -A_1  D_1  S_1  To be done

     Representation     2      1 modes -A_1  D_1  S_1  To be done

     Representation     3      1 modes -A_2  D_2  S_2  To be done

     Representation     4      1 modes -B_1  D_3  S_3  To be done

     Representation     5      1 modes -B_2  D_4  S_4  To be done

     Representation     6      1 modes -B_2  D_4  S_4  To be done



     Alpha used in Ewald sum =   2.5000
     PHONON       :   3m56.65s CPU   3m58.77s WALL



     Representation #  1 mode #   1

     Self-consistent Calculation

      iter #   1 total cpu time :   240.0 secs   av.it.:   5.8
      thresh= 1.000E-02 alpha_mix =  0.700 |ddv_scf|^2 =  1.555E-05

      iter #   2 total cpu time :   241.6 secs   av.it.:  10.3
      thresh= 3.944E-04 alpha_mix =  0.700 |ddv_scf|^2 =  3.125E-05

      iter #   3 total cpu time :   243.3 secs   av.it.:   9.5
      thresh= 5.590E-04 alpha_mix =  0.700 |ddv_scf|^2 =  3.565E-08

      iter #   4 total cpu time :   245.1 secs   av.it.:  10.2
      thresh= 1.888E-05 alpha_mix =  0.700 |ddv_scf|^2 =  9.195E-09

      iter #   5 total cpu time :   246.6 secs   av.it.:   9.9
      thresh= 9.589E-06 alpha_mix =  0.700 |ddv_scf|^2 =  8.748E-12

      iter #   6 total cpu time :   248.3 secs   av.it.:   9.9
      thresh= 2.958E-07 alpha_mix =  0.700 |ddv_scf|^2 =  3.566E-13

      iter #   7 total cpu time :   250.1 secs   av.it.:  10.1
      thresh= 5.972E-08 alpha_mix =  0.700 |ddv_scf|^2 =  2.620E-14

      iter #   8 total cpu time :   251.9 secs   av.it.:   9.8
      thresh= 1.619E-08 alpha_mix =  0.700 |ddv_scf|^2 =  6.909E-15

      iter #   9 total cpu time :   253.9 secs   av.it.:   9.7
      thresh= 8.312E-09 alpha_mix =  0.700 |ddv_scf|^2 =  7.931E-16

      iter #  10 total cpu time :   255.8 secs   av.it.:   9.8
      thresh= 2.816E-09 alpha_mix =  0.700 |ddv_scf|^2 =  8.269E-17

     End of self-consistent calculation

     Convergence has been achieved 


     Representation #  2 mode #   2

     Self-consistent Calculation

      iter #   1 total cpu time :   257.1 secs   av.it.:   6.1
      thresh= 1.000E-02 alpha_mix =  0.700 |ddv_scf|^2 =  9.733E-06

      iter #   2 total cpu time :   258.7 secs   av.it.:  10.4
      thresh= 3.120E-04 alpha_mix =  0.700 |ddv_scf|^2 =  1.198E-05

      iter #   3 total cpu time :   260.5 secs   av.it.:   9.8
      thresh= 3.461E-04 alpha_mix =  0.700 |ddv_scf|^2 =  2.756E-07

      iter #   4 total cpu time :   262.2 secs   av.it.:   9.8
      thresh= 5.250E-05 alpha_mix =  0.700 |ddv_scf|^2 =  6.837E-09

      iter #   5 total cpu time :   263.9 secs   av.it.:   9.9
      thresh= 8.268E-06 alpha_mix =  0.700 |ddv_scf|^2 =  4.959E-12

      iter #   6 total cpu time :   265.6 secs   av.it.:   9.7
      thresh= 2.227E-07 alpha_mix =  0.700 |ddv_scf|^2 =  3.383E-13

      iter #   7 total cpu time :   267.1 secs   av.it.:  10.0
      thresh= 5.816E-08 alpha_mix =  0.700 |ddv_scf|^2 =  3.867E-14

      iter #   8 total cpu time :   268.9 secs   av.it.:   9.7
      thresh= 1.967E-08 alpha_mix =  0.700 |ddv_scf|^2 =  3.581E-15

      iter #   9 total cpu time :   270.6 secs   av.it.:   9.8
      thresh= 5.984E-09 alpha_mix =  0.700 |ddv_scf|^2 =  3.786E-16

      iter #  10 total cpu time :   272.3 secs   av.it.:  10.1
      thresh= 1.946E-09 alpha_mix =  0.700 |ddv_scf|^2 =  4.706E-17

     End of self-consistent calculation

     Convergence has been achieved 


     Representation #  3 mode #   3

     Self-consistent Calculation

      iter #   1 total cpu time :   273.5 secs   av.it.:   5.5
      thresh= 1.000E-02 alpha_mix =  0.700 |ddv_scf|^2 =  1.210E-06

      iter #   2 total cpu time :   275.0 secs   av.it.:   9.7
      thresh= 1.100E-04 alpha_mix =  0.700 |ddv_scf|^2 =  2.010E-07

      iter #   3 total cpu time :   276.7 secs   av.it.:   9.4
      thresh= 4.483E-05 alpha_mix =  0.700 |ddv_scf|^2 =  5.172E-09

      iter #   4 total cpu time :   278.2 secs   av.it.:   9.2
      thresh= 7.192E-06 alpha_mix =  0.700 |ddv_scf|^2 =  4.146E-12

      iter #   5 total cpu time :   279.9 secs   av.it.:   9.1
      thresh= 2.036E-07 alpha_mix =  0.700 |ddv_scf|^2 =  4.206E-14

      iter #   6 total cpu time :   281.4 secs   av.it.:   8.7
      thresh= 2.051E-08 alpha_mix =  0.700 |ddv_scf|^2 =  5.909E-16

      iter #   7 total cpu time :   283.0 secs   av.it.:   9.5
      thresh= 2.431E-09 alpha_mix =  0.700 |ddv_scf|^2 =  1.304E-17

     End of self-consistent calculation

     Convergence has been achieved 


     Representation #  4 mode #   4

     Self-consistent Calculation

      iter #   1 total cpu time :   284.0 secs   av.it.:   4.6
      thresh= 1.000E-02 alpha_mix =  0.700 |ddv_scf|^2 =  2.298E-07

      iter #   2 total cpu time :   285.7 secs   av.it.:   9.1
      thresh= 4.794E-05 alpha_mix =  0.700 |ddv_scf|^2 =  1.711E-08

      iter #   3 total cpu time :   287.3 secs   av.it.:   9.2
      thresh= 1.308E-05 alpha_mix =  0.700 |ddv_scf|^2 =  4.520E-11

      iter #   4 total cpu time :   288.9 secs   av.it.:   9.4
      thresh= 6.723E-07 alpha_mix =  0.700 |ddv_scf|^2 =  7.116E-13

      iter #   5 total cpu time :   290.5 secs   av.it.:   9.4
      thresh= 8.435E-08 alpha_mix =  0.700 |ddv_scf|^2 =  1.450E-14

      iter #   6 total cpu time :   292.0 secs   av.it.:   9.5
      thresh= 1.204E-08 alpha_mix =  0.700 |ddv_scf|^2 =  5.823E-17

     End of self-consistent calculation

     Convergence has been achieved 


     Representation #  5 mode #   5

     Self-consistent Calculation

      iter #   1 total cpu time :   293.3 secs   av.it.:   5.8
      thresh= 1.000E-02 alpha_mix =  0.700 |ddv_scf|^2 =  5.998E-06

      iter #   2 total cpu time :   295.0 secs   av.it.:  10.5
      thresh= 2.449E-04 alpha_mix =  0.700 |ddv_scf|^2 =  7.753E-06

      iter #   3 total cpu time :   296.8 secs   av.it.:   9.8
      thresh= 2.784E-04 alpha_mix =  0.700 |ddv_scf|^2 =  1.185E-08

      iter #   4 total cpu time :   298.4 secs   av.it.:  10.0
      thresh= 1.089E-05 alpha_mix =  0.700 |ddv_scf|^2 =  3.353E-10

      iter #   5 total cpu time :   300.1 secs   av.it.:  10.4
      thresh= 1.831E-06 alpha_mix =  0.700 |ddv_scf|^2 =  3.936E-12

      iter #   6 total cpu time :   302.0 secs   av.it.:  10.5
      thresh= 1.984E-07 alpha_mix =  0.700 |ddv_scf|^2 =  5.659E-14

      iter #   7 total cpu time :   304.3 secs   av.it.:   9.8
      thresh= 2.379E-08 alpha_mix =  0.700 |ddv_scf|^2 =  1.976E-15

      iter #   8 total cpu time :   306.4 secs   av.it.:  10.5
      thresh= 4.445E-09 alpha_mix =  0.700 |ddv_scf|^2 =  3.424E-16

      iter #   9 total cpu time :   308.1 secs   av.it.:   9.9
      thresh= 1.850E-09 alpha_mix =  0.700 |ddv_scf|^2 =  5.452E-17

     End of self-consistent calculation

     Convergence has been achieved 


     Representation #  6 mode #   6

     Self-consistent Calculation

      iter #   1 total cpu time :   309.2 secs   av.it.:   5.2
      thresh= 1.000E-02 alpha_mix =  0.700 |ddv_scf|^2 =  2.867E-06

      iter #   2 total cpu time :   310.9 secs   av.it.:  10.4
      thresh= 1.693E-04 alpha_mix =  0.700 |ddv_scf|^2 =  3.640E-06

      iter #   3 total cpu time :   312.5 secs   av.it.:   9.8
      thresh= 1.908E-04 alpha_mix =  0.700 |ddv_scf|^2 =  9.941E-09

      iter #   4 total cpu time :   314.2 secs   av.it.:   9.9
      thresh= 9.971E-06 alpha_mix =  0.700 |ddv_scf|^2 =  1.312E-10

      iter #   5 total cpu time :   316.0 secs   av.it.:  10.4
      thresh= 1.145E-06 alpha_mix =  0.700 |ddv_scf|^2 =  3.958E-12

      iter #   6 total cpu time :   317.9 secs   av.it.:  10.6
      thresh= 1.990E-07 alpha_mix =  0.700 |ddv_scf|^2 =  4.200E-14

      iter #   7 total cpu time :   319.5 secs   av.it.:   9.8
      thresh= 2.049E-08 alpha_mix =  0.700 |ddv_scf|^2 =  1.977E-15

      iter #   8 total cpu time :   321.1 secs   av.it.:  10.3
      thresh= 4.446E-09 alpha_mix =  0.700 |ddv_scf|^2 =  2.403E-16

      iter #   9 total cpu time :   322.9 secs   av.it.:   9.9
      thresh= 1.550E-09 alpha_mix =  0.700 |ddv_scf|^2 =  1.809E-17

     End of self-consistent calculation

     Convergence has been achieved 

     Number of q in the star =   12
     List of q in the star:
          1   0.666666667   0.000000000   0.666666667
          2   0.666666667   0.000000000  -0.666666667
          3  -0.666666667   0.000000000  -0.666666667
          4  -0.666666667   0.000000000   0.666666667
          5   0.000000000  -0.666666667   0.666666667
          6  -0.666666667   0.666666667   0.000000000
          7  -0.666666667  -0.666666667   0.000000000
          8   0.666666667   0.666666667   0.000000000
          9   0.666666667  -0.666666667   0.000000000
         10   0.000000000   0.666666667   0.666666667
         11   0.000000000   0.666666667  -0.666666667
         12   0.000000000  -0.666666667  -0.666666667

     Diagonalizing the dynamical matrix

     q = (    0.666666667  -0.000000000   0.666666667 ) 

 **************************************************************************
     freq (    1) =       4.630786 [THz] =     154.466394 [cm-1]
     freq (    2) =       6.947679 [THz] =     231.749637 [cm-1]
     freq (    3) =      10.060216 [THz] =     335.572690 [cm-1]
     freq (    4) =      11.177127 [THz] =     372.828842 [cm-1]
     freq (    5) =      14.029519 [THz] =     467.974379 [cm-1]
     freq (    6) =      14.803581 [THz] =     493.794319 [cm-1]
 **************************************************************************

     Mode symmetry, C_2v (mm2)  point group:

     freq (  1 -  1) =        154.5  [cm-1]   --> B_1  D_3  S_3      
     freq (  2 -  2) =        231.7  [cm-1]   --> B_2  D_4  S_4      
     freq (  3 -  3) =        335.6  [cm-1]   --> A_1  D_1  S_1      
     freq (  4 -  4) =        372.8  [cm-1]   --> B_2  D_4  S_4      
     freq (  5 -  5) =        468.0  [cm-1]   --> A_2  D_2  S_2      
     freq (  6 -  6) =        493.8  [cm-1]   --> A_1  D_1  S_1      

     init_run     :      0.87s CPU      0.87s WALL (       3 calls)
     electrons    :     11.14s CPU     11.20s WALL (       3 calls)

     Called by init_run:
     wfcinit      :      0.00s CPU      0.00s WALL (       3 calls)
     potinit      :      0.07s CPU      0.07s WALL (       3 calls)
     hinit0       :      0.72s CPU      0.72s WALL (       3 calls)

     Called by electrons:
     c_bands      :     11.14s CPU     11.19s WALL (       3 calls)
     v_of_rho     :      0.09s CPU      0.09s WALL (       4 calls)
     newd         :      0.05s CPU      0.06s WALL (       4 calls)

     Called by c_bands:
     init_us_2    :      1.31s CPU      1.36s WALL (    3606 calls)
     cegterg      :      9.50s CPU      9.53s WALL (     128 calls)

     Called by sum_band:

     Called by *egterg:
     h_psi        :    196.05s CPU    196.90s WALL (   41901 calls)
     s_psi        :     17.88s CPU     17.96s WALL (   85770 calls)
     g_psi        :      0.07s CPU      0.07s WALL (    1478 calls)
     cdiaghg      :      0.08s CPU      0.08s WALL (    1606 calls)

     Called by h_psi:
     h_psi:pot    :    195.27s CPU    196.11s WALL (   41901 calls)
     h_psi:calbec :     13.95s CPU     14.00s WALL (   41901 calls)
     vloc_psi     :    171.89s CPU    172.67s WALL (   41901 calls)
     add_vuspsi   :      9.30s CPU      9.34s WALL (   41901 calls)

     General routines
     calbec       :     26.57s CPU     26.70s WALL (   94912 calls)
     fft          :      3.38s CPU      3.41s WALL (    3546 calls)
     ffts         :      0.50s CPU      0.51s WALL (     600 calls)
     fftw         :    172.16s CPU    173.43s WALL (  369232 calls)
     davcio       :      1.04s CPU      1.70s WALL (   19515 calls)

     Parallel routines

     PHONON       :   5m19.94s CPU   5m22.97s WALL

     INITIALIZATION: 
     phq_setup    :      0.20s CPU      0.20s WALL (       4 calls)
     phq_init     :      7.08s CPU      7.11s WALL (       4 calls)

     phq_init     :      7.08s CPU      7.11s WALL (       4 calls)
     set_drhoc    :      2.72s CPU      2.72s WALL (      12 calls)
     init_vloc    :      0.01s CPU      0.01s WALL (       4 calls)
     init_us_1    :      0.85s CPU      0.85s WALL (       4 calls)
     newd         :      0.05s CPU      0.06s WALL (       4 calls)
     dvanqq       :      0.77s CPU      0.78s WALL (       4 calls)
     drho         :      2.35s CPU      2.36s WALL (       4 calls)

     DYNAMICAL MATRIX:
     dynmat0      :      2.13s CPU      2.14s WALL (       4 calls)
     phqscf       :    273.39s CPU    276.08s WALL (       4 calls)
     dynmatrix    :      0.01s CPU      0.01s WALL (       4 calls)

     phqscf       :    273.39s CPU    276.08s WALL (       4 calls)
     solve_linter :    271.37s CPU    273.96s WALL (      16 calls)
     drhodv       :      0.65s CPU      0.68s WALL (      16 calls)

     dynmat0      :      2.13s CPU      2.14s WALL (       4 calls)
     dynmat_us    :      0.19s CPU      0.20s WALL (       4 calls)
     d2ionq       :      0.02s CPU      0.02s WALL (       4 calls)
     dynmatcc     :      1.91s CPU      1.91s WALL (       4 calls)

     dynmat_us    :      0.19s CPU      0.20s WALL (       4 calls)
     addusdynmat  :      0.00s CPU      0.00s WALL (       4 calls)

     phqscf       :    273.39s CPU    276.08s WALL (       4 calls)
     solve_linter :    271.37s CPU    273.96s WALL (      16 calls)

     solve_linter :    271.37s CPU    273.96s WALL (      16 calls)
     dvqpsi_us    :      3.40s CPU      3.42s WALL (     480 calls)
     ortho        :      2.40s CPU      2.42s WALL (    3678 calls)
     cgsolve      :    230.87s CPU    231.84s WALL (    3678 calls)
     incdrhoscf   :     21.93s CPU     22.26s WALL (    3678 calls)
     addusddens   :      3.37s CPU      3.38s WALL (     149 calls)
     vpsifft      :     14.79s CPU     15.19s WALL (    3054 calls)
     dv_of_drho   :      3.72s CPU      3.74s WALL (     209 calls)
     mix_pot      :      0.61s CPU      0.94s WALL (     140 calls)
     psymdvscf    :      4.78s CPU      4.81s WALL (     133 calls)
     newdq        :      3.69s CPU      3.75s WALL (     140 calls)
     adddvscf     :      1.05s CPU      1.06s WALL (    3198 calls)
     drhodvus     :      0.02s CPU      0.03s WALL (      16 calls)

     dvqpsi_us    :      3.40s CPU      3.42s WALL (     480 calls)
     dvqpsi_us_on :      0.56s CPU      0.56s WALL (     480 calls)

     cgsolve      :    230.87s CPU    231.84s WALL (    3678 calls)
     ch_psi       :    222.78s CPU    223.70s WALL (   40167 calls)

     ch_psi       :    222.78s CPU    223.70s WALL (   40167 calls)
     h_psi        :    196.05s CPU    196.90s WALL (   41901 calls)
     last         :     25.36s CPU     25.45s WALL (   40167 calls)

     h_psi        :    196.05s CPU    196.90s WALL (   41901 calls)
     add_vuspsi   :      9.30s CPU      9.34s WALL (   41901 calls)

     incdrhoscf   :     21.93s CPU     22.26s WALL (    3678 calls)
     addusdbec    :      1.51s CPU      1.51s WALL (    4110 calls)

     drhodvus     :      0.02s CPU      0.03s WALL (      16 calls)

      General routines
     calbec       :     26.57s CPU     26.70s WALL (   94912 calls)
     fft          :      3.38s CPU      3.41s WALL (    3546 calls)
     ffts         :      0.50s CPU      0.51s WALL (     600 calls)
     fftw         :    172.16s CPU    173.43s WALL (  369232 calls)
     davcio       :      1.04s CPU      1.70s WALL (   19515 calls)
     write_rec    :      0.16s CPU      0.27s WALL (     156 calls)


     PHONON       :   5m19.94s CPU   5m22.97s WALL


   This run was terminated on:  12:27:43   8Apr2022            

=------------------------------------------------------------------------------=
   JOB DONE.
=------------------------------------------------------------------------------=
