
     Program PWSCF v.6.4.1 starts on  8Apr2022 at 11:24:48 

     This program is part of the open-source Quantum ESPRESSO suite
     for quantum simulation of materials; please cite
         "P. Giannozzi et al., J. Phys.:Condens. Matter 21 395502 (2009);
         "P. Giannozzi et al., J. Phys.:Condens. Matter 29 465901 (2017);
          URL http://www.quantum-espresso.org", 
     in publications or presentations arising from this work. More details at
     http://www.quantum-espresso.org/quote

     Parallel version (MPI), running on     1 processors

     MPI processes distributed on     1 nodes
     Waiting for input...
     Reading input from standard input

     Current dimensions of program PWSCF are:
     Max number of different atomic species (ntypx) = 10
     Max number of k-points (npk) =  40000
     Max angular momentum in pseudopotentials (lmaxx) =  3

     IMPORTANT: XC functional enforced from input :
     Exchange-correlation      = PBE ( 1  4  3  4 0 0)
     Any further DFT definition will be discarded
     Please, verify this is what you really want


     Subspace diagonalization in iterative solution of the eigenvalue problem:
     a serial algorithm will be used


     G-vector sticks info
     --------------------
     sticks:   dense  smooth     PW     G-vecs:    dense   smooth      PW
     Sum         859     859    253                16889    16889    2733



     bravais-lattice index     =            2
     lattice parameter (alat)  =      10.2625  a.u.
     unit-cell volume          =     270.2088 (a.u.)^3
     number of atoms/cell      =            2
     number of atomic types    =            1
     number of electrons       =         8.00
     number of Kohn-Sham states=            4
     kinetic-energy cutoff     =      60.0000  Ry
     charge density cutoff     =     240.0000  Ry
     convergence threshold     =      1.0E-08
     mixing beta               =       0.7000
     number of iterations used =            8  plain     mixing
     Exchange-correlation      = PBE ( 1  4  3  4 0 0)

     celldm(1)=  10.262500  celldm(2)=   0.000000  celldm(3)=   0.000000
     celldm(4)=   0.000000  celldm(5)=   0.000000  celldm(6)=   0.000000

     crystal axes: (cart. coord. in units of alat)
               a(1) = (  -0.500000   0.000000   0.500000 )  
               a(2) = (   0.000000   0.500000   0.500000 )  
               a(3) = (  -0.500000   0.500000   0.000000 )  

     reciprocal axes: (cart. coord. in units 2 pi/alat)
               b(1) = ( -1.000000 -1.000000  1.000000 )  
               b(2) = (  1.000000  1.000000  1.000000 )  
               b(3) = ( -1.000000  1.000000 -1.000000 )  


     PseudoPot. # 1 for Si read from file:
     ./Si.pbe-n-rrkjus_psl.0.1.UPF
     MD5 check sum: 7b4bf2ea543dc08298462eff3fb52eea
     Pseudo is Ultrasoft + core correction, Zval =  4.0
     Generated using "atomic" code by A. Dal Corso v.5.0.2 svn rev. 9415
     Using radial grid of 1141 points,  4 beta functions with: 
                l(1) =   0
                l(2) =   0
                l(3) =   1
                l(4) =   1
     Q(r) pseudized with 0 coefficients 


     atomic species   valence    mass     pseudopotential
        Si             4.00    28.08500     Si( 1.00)

     48 Sym. Ops., with inversion, found (24 have fractional translation)



   Cartesian axes

     site n.     atom                  positions (alat units)
         1           Si  tau(   1) = (   0.0000000   0.0000000   0.0000000  )
         2           Si  tau(   2) = (   0.2500000   0.2500000   0.2500000  )

     number of k points=     8
                       cart. coord. in units 2pi/alat
        k(    1) = (   0.0000000   0.0000000   0.0000000), wk =   0.0312500
        k(    2) = (  -0.2500000   0.2500000  -0.2500000), wk =   0.2500000
        k(    3) = (   0.5000000  -0.5000000   0.5000000), wk =   0.1250000
        k(    4) = (   0.0000000   0.5000000   0.0000000), wk =   0.1875000
        k(    5) = (   0.7500000  -0.2500000   0.7500000), wk =   0.7500000
        k(    6) = (   0.5000000   0.0000000   0.5000000), wk =   0.3750000
        k(    7) = (   0.0000000  -1.0000000   0.0000000), wk =   0.0937500
        k(    8) = (  -0.5000000  -1.0000000   0.0000000), wk =   0.1875000

     Dense  grid:    16889 G-vectors     FFT dimensions: (  36,  36,  36)

     Estimated max dynamical RAM per process >      25.37 MB

     Initial potential from superposition of free atoms

     starting charge    7.99888, renormalised to    8.00000
     Starting wfcs are    8 randomized atomic wfcs

     total cpu time spent up to now is        0.4 secs

     Self-consistent Calculation

     iteration #  1     ecut=    60.00 Ry     beta= 0.70
     Davidson diagonalization with overlap
     ethr =  1.00E-02,  avg # of iterations =  2.0

     Threshold (ethr) on eigenvalues was too large:
     Diagonalizing with lowered threshold

     Davidson diagonalization with overlap
     ethr =  7.93E-04,  avg # of iterations =  1.1

     total cpu time spent up to now is        0.6 secs

     total energy              =     -22.82063236 Ry
     Harris-Foulkes estimate   =     -22.83628083 Ry
     estimated scf accuracy    <       0.06316518 Ry

     iteration #  2     ecut=    60.00 Ry     beta= 0.70
     Davidson diagonalization with overlap
     ethr =  7.90E-04,  avg # of iterations =  1.0

     total cpu time spent up to now is        0.7 secs

     total energy              =     -22.82295542 Ry
     Harris-Foulkes estimate   =     -22.82307492 Ry
     estimated scf accuracy    <       0.00269631 Ry

     iteration #  3     ecut=    60.00 Ry     beta= 0.70
     Davidson diagonalization with overlap
     ethr =  3.37E-05,  avg # of iterations =  1.6

     total cpu time spent up to now is        0.8 secs

     total energy              =     -22.82322413 Ry
     Harris-Foulkes estimate   =     -22.82323407 Ry
     estimated scf accuracy    <       0.00006057 Ry

     iteration #  4     ecut=    60.00 Ry     beta= 0.70
     Davidson diagonalization with overlap
     ethr =  7.57E-07,  avg # of iterations =  3.0

     total cpu time spent up to now is        1.0 secs

     total energy              =     -22.82325555 Ry
     Harris-Foulkes estimate   =     -22.82325607 Ry
     estimated scf accuracy    <       0.00000161 Ry

     iteration #  5     ecut=    60.00 Ry     beta= 0.70
     Davidson diagonalization with overlap
     ethr =  2.01E-08,  avg # of iterations =  3.0

     total cpu time spent up to now is        1.1 secs

     total energy              =     -22.82325629 Ry
     Harris-Foulkes estimate   =     -22.82325632 Ry
     estimated scf accuracy    <       0.00000009 Ry

     iteration #  6     ecut=    60.00 Ry     beta= 0.70
     Davidson diagonalization with overlap
     ethr =  1.08E-09,  avg # of iterations =  2.4

     total cpu time spent up to now is        1.2 secs

     End of self-consistent calculation

          k = 0.0000 0.0000 0.0000 (  2109 PWs)   bands (ev):

    -5.7201   6.2524   6.2524   6.2524

          k =-0.2500 0.2500-0.2500 (  2106 PWs)   bands (ev):

    -4.9191   2.3186   5.4889   5.4889

          k = 0.5000-0.5000 0.5000 (  2120 PWs)   bands (ev):

    -3.3837  -0.7285   5.0490   5.0490

          k = 0.0000 0.5000 0.0000 (  2085 PWs)   bands (ev):

    -4.6365   2.7339   4.3543   4.3543

          k = 0.7500-0.2500 0.7500 (  2123 PWs)   bands (ev):

    -2.9975  -0.1363   2.7072   4.0389

          k = 0.5000 0.0000 0.5000 (  2119 PWs)   bands (ev):

    -3.6729   0.7674   2.4874   4.9190

          k = 0.0000-1.0000 0.0000 (  2100 PWs)   bands (ev):

    -1.5700  -1.5700   3.3899   3.3899

          k =-0.5000-1.0000 0.0000 (  2148 PWs)   bands (ev):

    -1.4049  -1.4049   2.3864   2.3864

     highest occupied level (ev):     6.2524

!    total energy              =     -22.82325632 Ry
     Harris-Foulkes estimate   =     -22.82325632 Ry
     estimated scf accuracy    <          3.5E-09 Ry

     The total energy is the sum of the following terms:

     one-electron contribution =       5.11926714 Ry
     hartree contribution      =       1.12198039 Ry
     xc contribution           =     -12.26766708 Ry
     ewald contribution        =     -16.79683678 Ry

     convergence has been achieved in   6 iterations

     Forces acting on atoms (cartesian axes, Ry/au):

     atom    1 type  1   force =     0.00000000    0.00000000    0.00000000
     atom    2 type  1   force =     0.00000000    0.00000000    0.00000000

     Total force =     0.000000     Total SCF correction =     0.000000


     Computing stress (Cartesian axis) and pressure

          total   stress  (Ry/bohr**3)                   (kbar)     P=   24.79
   0.00016852  -0.00000000  -0.00000000         24.79     -0.00     -0.00
  -0.00000000   0.00016852   0.00000000         -0.00     24.79      0.00
  -0.00000000   0.00000000   0.00016852         -0.00      0.00     24.79


     Writing output data file Si.save/

     init_run     :      0.24s CPU      0.25s WALL (       1 calls)
     electrons    :      0.84s CPU      0.84s WALL (       1 calls)
     forces       :      0.04s CPU      0.04s WALL (       1 calls)
     stress       :      0.09s CPU      0.09s WALL (       1 calls)

     Called by init_run:
     wfcinit      :      0.06s CPU      0.06s WALL (       1 calls)
     potinit      :      0.02s CPU      0.02s WALL (       1 calls)
     hinit0       :      0.16s CPU      0.16s WALL (       1 calls)

     Called by electrons:
     c_bands      :      0.56s CPU      0.56s WALL (       7 calls)
     sum_band     :      0.16s CPU      0.16s WALL (       7 calls)
     v_of_rho     :      0.09s CPU      0.09s WALL (       7 calls)
     newd         :      0.04s CPU      0.04s WALL (       7 calls)
     mix_rho      :      0.01s CPU      0.01s WALL (       7 calls)

     Called by c_bands:
     init_us_2    :      0.03s CPU      0.03s WALL (     136 calls)
     cegterg      :      0.52s CPU      0.52s WALL (      56 calls)

     Called by sum_band:
     sum_band:bec :      0.00s CPU      0.00s WALL (      56 calls)
     addusdens    :      0.04s CPU      0.04s WALL (       7 calls)

     Called by *egterg:
     h_psi        :      0.50s CPU      0.50s WALL (     177 calls)
     s_psi        :      0.02s CPU      0.02s WALL (     177 calls)
     g_psi        :      0.00s CPU      0.00s WALL (     113 calls)
     cdiaghg      :      0.00s CPU      0.00s WALL (     161 calls)

     Called by h_psi:
     h_psi:pot    :      0.50s CPU      0.50s WALL (     177 calls)
     h_psi:calbec :      0.02s CPU      0.02s WALL (     177 calls)
     vloc_psi     :      0.45s CPU      0.45s WALL (     177 calls)
     add_vuspsi   :      0.02s CPU      0.02s WALL (     177 calls)

     General routines
     calbec       :      0.04s CPU      0.04s WALL (     273 calls)
     fft          :      0.06s CPU      0.06s WALL (     103 calls)
     ffts         :      0.00s CPU      0.00s WALL (       7 calls)
     fftw         :      0.46s CPU      0.47s WALL (    1572 calls)

     Parallel routines

     PWSCF        :      1.36s CPU      1.37s WALL


   This run was terminated on:  11:24:49   8Apr2022            

=------------------------------------------------------------------------------=
   JOB DONE.
=------------------------------------------------------------------------------=
