
     Program PHONON v.6.4.1 starts on  8Apr2022 at 11:13:37 

     This program is part of the open-source Quantum ESPRESSO suite
     for quantum simulation of materials; please cite
         "P. Giannozzi et al., J. Phys.:Condens. Matter 21 395502 (2009);
         "P. Giannozzi et al., J. Phys.:Condens. Matter 29 465901 (2017);
          URL http://www.quantum-espresso.org", 
     in publications or presentations arising from this work. More details at
     http://www.quantum-espresso.org/quote

     Parallel version (MPI), running on     1 processors

     MPI processes distributed on     1 nodes

     Reading data from directory:
     ./tmp/Si.save/

     IMPORTANT: XC functional enforced from input :
     Exchange-correlation      = PBE ( 1  4  3  4 0 0)
     Any further DFT definition will be discarded
     Please, verify this is what you really want


     G-vector sticks info
     --------------------
     sticks:   dense  smooth     PW     G-vecs:    dense   smooth      PW
     Sum         859     859    253                16889    16889    2733



     Dynamical matrices for ( 2, 2, 2)  uniform grid of q-points
     (   3 q-points):
       N         xq(1)         xq(2)         xq(3) 
       1   0.000000000   0.000000000   0.000000000
       2   0.500000000  -0.500000000   0.500000000
       3   0.000000000  -1.000000000   0.000000000

     Calculation of q =    0.0000000   0.0000000   0.0000000

                                                                                

     bravais-lattice index     =            2
     lattice parameter (alat)  =      10.2625  a.u.
     unit-cell volume          =     270.2088 (a.u.)^3
     number of atoms/cell      =            2
     number of atomic types    =            1
     kinetic-energy cut-off    =      60.0000  Ry
     charge density cut-off    =     240.0000  Ry
     convergence threshold     =      1.0E-16
     beta                      =       0.7000
     number of iterations used =            4
     Exchange-correlation      = PBE ( 1  4  3  4 0 0)


     celldm(1)=   10.26250  celldm(2)=    0.00000  celldm(3)=    0.00000
     celldm(4)=    0.00000  celldm(5)=    0.00000  celldm(6)=    0.00000

     crystal axes: (cart. coord. in units of alat)
               a(1) = ( -0.5000  0.0000  0.5000 )  
               a(2) = (  0.0000  0.5000  0.5000 )  
               a(3) = ( -0.5000  0.5000  0.0000 )  

     reciprocal axes: (cart. coord. in units 2 pi/alat)
               b(1) = ( -1.0000 -1.0000  1.0000 )  
               b(2) = (  1.0000  1.0000  1.0000 )  
               b(3) = ( -1.0000  1.0000 -1.0000 )  


     Atoms inside the unit cell: 

     Cartesian axes

     site n.  atom      mass           positions (alat units)
        1     Si 207.2000   tau(    1) = (    0.00000    0.00000    0.00000  )
        2     Si 207.2000   tau(    2) = (    0.25000    0.25000    0.25000  )

     Computing dynamical matrix for 
                    q = (   0.0000000   0.0000000   0.0000000 )

     49 Sym.Ops. (with q -> -q+G )


     G cutoff =  640.2622  (  16889 G-vectors)     FFT grid: ( 36, 36, 36)
     number of k points=     8

     PseudoPot. # 1 for Si read from file:
     ./Si.pbe-n-rrkjus_psl.0.1.UPF
     MD5 check sum: 7b4bf2ea543dc08298462eff3fb52eea
     Pseudo is Ultrasoft + core correction, Zval =  4.0
     Generated using "atomic" code by A. Dal Corso v.5.0.2 svn rev. 9415
     Using radial grid of 1141 points,  4 beta functions with: 
                l(1) =   0
                l(2) =   0
                l(3) =   1
                l(4) =   1
     Q(r) pseudized with 0 coefficients 


     Mode symmetry, O_h (m-3m)  point group:


     Electric field:
     Dielectric constant
     Born effective charges in two ways 


     Atomic displacements:
     There are   2 irreducible representations

     Representation     1      3 modes -T_2g G_25' G_5+  To be done

     Representation     2      3 modes -T_1u G_15  G_4-  To be done



     Alpha used in Ewald sum =   2.5000
     PHONON       :      1.23s CPU      1.23s WALL


     Electric Fields Calculation

      iter #   1 total cpu time :     3.8 secs   av.it.:   6.2
      thresh= 1.000E-02 alpha_mix =  0.700 |ddv_scf|^2 =  1.719E-07

      iter #   2 total cpu time :     5.0 secs   av.it.:  11.0
      thresh= 4.146E-05 alpha_mix =  0.700 |ddv_scf|^2 =  1.442E-08

      iter #   3 total cpu time :     6.2 secs   av.it.:  10.5
      thresh= 1.201E-05 alpha_mix =  0.700 |ddv_scf|^2 =  1.144E-09

      iter #   4 total cpu time :     7.4 secs   av.it.:  10.5
      thresh= 3.382E-06 alpha_mix =  0.700 |ddv_scf|^2 =  8.043E-12

      iter #   5 total cpu time :     8.6 secs   av.it.:  10.7
      thresh= 2.836E-07 alpha_mix =  0.700 |ddv_scf|^2 =  1.205E-14

      iter #   6 total cpu time :     9.8 secs   av.it.:  10.0
      thresh= 1.098E-08 alpha_mix =  0.700 |ddv_scf|^2 =  5.752E-16

      iter #   7 total cpu time :    11.0 secs   av.it.:  10.3
      thresh= 2.398E-09 alpha_mix =  0.700 |ddv_scf|^2 =  1.207E-18

     End of electric fields calculation

          Dielectric constant in cartesian axis 

          (      23.563250761       0.000000000       0.000000000 )
          (       0.000000000      23.563250761      -0.000000000 )
          (       0.000000000      -0.000000000      23.563250761 )

          Effective charges (d Force / dE) in cartesian axis

           atom      1   Si 
      Ex  (       -1.17493       -0.00000        0.00000 )
      Ey  (        0.00000       -1.17493        0.00000 )
      Ez  (       -0.00000        0.00000       -1.17493 )
           atom      2   Si 
      Ex  (       -1.17493        0.00000       -0.00000 )
      Ey  (        0.00000       -1.17493       -0.00000 )
      Ez  (        0.00000       -0.00000       -1.17493 )


     Representation #  1 modes #   1  2  3

     Self-consistent Calculation

      iter #   1 total cpu time :    12.9 secs   av.it.:   4.9
      thresh= 1.000E-02 alpha_mix =  0.700 |ddv_scf|^2 =  3.480E-08

      iter #   2 total cpu time :    14.1 secs   av.it.:  10.3
      thresh= 1.866E-05 alpha_mix =  0.700 |ddv_scf|^2 =  2.332E-09

      iter #   3 total cpu time :    15.3 secs   av.it.:  10.4
      thresh= 4.829E-06 alpha_mix =  0.700 |ddv_scf|^2 =  1.070E-10

      iter #   4 total cpu time :    16.6 secs   av.it.:  10.3
      thresh= 1.034E-06 alpha_mix =  0.700 |ddv_scf|^2 =  3.479E-13

      iter #   5 total cpu time :    17.8 secs   av.it.:  10.6
      thresh= 5.898E-08 alpha_mix =  0.700 |ddv_scf|^2 =  3.824E-15

      iter #   6 total cpu time :    19.0 secs   av.it.:  10.2
      thresh= 6.183E-09 alpha_mix =  0.700 |ddv_scf|^2 =  1.864E-17

     End of self-consistent calculation

     Convergence has been achieved 


     Representation #  2 modes #   4  5  6

     Self-consistent Calculation

      iter #   1 total cpu time :    20.2 secs   av.it.:   5.3
      thresh= 1.000E-02 alpha_mix =  0.700 |ddv_scf|^2 =  3.250E-08

      iter #   2 total cpu time :    21.4 secs   av.it.:  10.5
      thresh= 1.803E-05 alpha_mix =  0.700 |ddv_scf|^2 =  2.427E-09

      iter #   3 total cpu time :    22.7 secs   av.it.:  10.9
      thresh= 4.927E-06 alpha_mix =  0.700 |ddv_scf|^2 =  9.902E-11

      iter #   4 total cpu time :    24.0 secs   av.it.:  11.1
      thresh= 9.951E-07 alpha_mix =  0.700 |ddv_scf|^2 =  5.347E-13

      iter #   5 total cpu time :    25.3 secs   av.it.:  11.2
      thresh= 7.312E-08 alpha_mix =  0.700 |ddv_scf|^2 =  1.131E-15

      iter #   6 total cpu time :    26.6 secs   av.it.:  10.6
      thresh= 3.363E-09 alpha_mix =  0.700 |ddv_scf|^2 =  2.798E-17

     End of self-consistent calculation

     Convergence has been achieved 

     Number of q in the star =    1
     List of q in the star:
          1   0.000000000   0.000000000   0.000000000

          Dielectric constant in cartesian axis 

          (      23.563250761       0.000000000       0.000000000 )
          (       0.000000000      23.563250761      -0.000000000 )
          (       0.000000000      -0.000000000      23.563250761 )

          Effective charges (d Force / dE) in cartesian axis

           atom      1   Si 
      Ex  (       -1.17493       -0.00000        0.00000 )
      Ey  (        0.00000       -1.17493        0.00000 )
      Ez  (       -0.00000        0.00000       -1.17493 )
           atom      2   Si 
      Ex  (       -1.17493        0.00000       -0.00000 )
      Ey  (        0.00000       -1.17493       -0.00000 )
      Ez  (        0.00000       -0.00000       -1.17493 )

          Effective charges (d P / du) in cartesian axis 

           atom      1   Si 
      Px  (       -1.17497        0.00000        0.00000 )
      Py  (        0.00000       -1.17497       -0.00000 )
      Pz  (        0.00000        0.00000       -1.17497 )
           atom      2   Si 
      Px  (       -1.17497        0.00000        0.00000 )
      Py  (        0.00000       -1.17497       -0.00000 )
      Pz  (        0.00000       -0.00000       -1.17497 )

     Diagonalizing the dynamical matrix

     q = (    0.000000000   0.000000000   0.000000000 ) 

 **************************************************************************
     freq (    1) =       0.135141 [THz] =       4.507809 [cm-1]
     freq (    2) =       0.135141 [THz] =       4.507809 [cm-1]
     freq (    3) =       0.135141 [THz] =       4.507809 [cm-1]
     freq (    4) =       5.756410 [THz] =     192.013163 [cm-1]
     freq (    5) =       5.756410 [THz] =     192.013163 [cm-1]
     freq (    6) =       5.756410 [THz] =     192.013163 [cm-1]
 **************************************************************************

     Mode symmetry, O_h (m-3m)  point group:

     freq (  1 -  3) =          4.5  [cm-1]   --> T_1u G_15  G_4- I  
     freq (  4 -  6) =        192.0  [cm-1]   --> T_2g G_25' G_5+ R  

     Calculation of q =    0.5000000  -0.5000000   0.5000000

     Subspace diagonalization in iterative solution of the eigenvalue problem:
     a serial algorithm will be used


     G-vector sticks info
     --------------------
     sticks:   dense  smooth     PW     G-vecs:    dense   smooth      PW
     Sum         859     859    295                16889    16889    3287



     bravais-lattice index     =            2
     lattice parameter (alat)  =      10.2625  a.u.
     unit-cell volume          =     270.2088 (a.u.)^3
     number of atoms/cell      =            2
     number of atomic types    =            1
     number of electrons       =         8.00
     number of Kohn-Sham states=            4
     kinetic-energy cutoff     =      60.0000  Ry
     charge density cutoff     =     240.0000  Ry
     Exchange-correlation      = PBE ( 1  4  3  4 0 0)

     celldm(1)=  10.262500  celldm(2)=   0.000000  celldm(3)=   0.000000
     celldm(4)=   0.000000  celldm(5)=   0.000000  celldm(6)=   0.000000

     crystal axes: (cart. coord. in units of alat)
               a(1) = (  -0.500000   0.000000   0.500000 )  
               a(2) = (   0.000000   0.500000   0.500000 )  
               a(3) = (  -0.500000   0.500000   0.000000 )  

     reciprocal axes: (cart. coord. in units 2 pi/alat)
               b(1) = ( -1.000000 -1.000000  1.000000 )  
               b(2) = (  1.000000  1.000000  1.000000 )  
               b(3) = ( -1.000000  1.000000 -1.000000 )  


     PseudoPot. # 1 for Si read from file:
     ./Si.pbe-n-rrkjus_psl.0.1.UPF
     MD5 check sum: 7b4bf2ea543dc08298462eff3fb52eea
     Pseudo is Ultrasoft + core correction, Zval =  4.0
     Generated using "atomic" code by A. Dal Corso v.5.0.2 svn rev. 9415
     Using radial grid of 1141 points,  4 beta functions with: 
                l(1) =   0
                l(2) =   0
                l(3) =   1
                l(4) =   1
     Q(r) pseudized with 0 coefficients 


     atomic species   valence    mass     pseudopotential
        Si             4.00   207.20000     Si( 1.00)

     48 Sym. Ops., with inversion, found



   Cartesian axes

     site n.     atom                  positions (alat units)
         1           Si  tau(   1) = (   0.0000000   0.0000000   0.0000000  )
         2           Si  tau(   2) = (   0.2500000   0.2500000   0.2500000  )

     number of k points=    26
                       cart. coord. in units 2pi/alat
        k(    1) = (   0.0000000   0.0000000   0.0000000), wk =   0.0312500
        k(    2) = (   0.5000000  -0.5000000   0.5000000), wk =   0.0000000
        k(    3) = (  -0.2500000   0.2500000  -0.2500000), wk =   0.0625000
        k(    4) = (   0.2500000  -0.2500000   0.2500000), wk =   0.0000000
        k(    5) = (   0.5000000  -0.5000000   0.5000000), wk =   0.0312500
        k(    6) = (   1.0000000  -1.0000000   1.0000000), wk =   0.0000000
        k(    7) = (   0.0000000   0.5000000   0.0000000), wk =   0.1875000
        k(    8) = (   0.5000000   0.0000000   0.5000000), wk =   0.0000000
        k(    9) = (   0.7500000  -0.2500000   0.7500000), wk =   0.1875000
        k(   10) = (   1.2500000  -0.7500000   1.2500000), wk =   0.0000000
        k(   11) = (   0.5000000   0.0000000   0.5000000), wk =   0.1875000
        k(   12) = (   1.0000000  -0.5000000   1.0000000), wk =   0.0000000
        k(   13) = (   0.0000000  -1.0000000   0.0000000), wk =   0.0937500
        k(   14) = (   0.5000000  -1.5000000   0.5000000), wk =   0.0000000
        k(   15) = (  -0.5000000  -1.0000000   0.0000000), wk =   0.1875000
        k(   16) = (   0.0000000  -1.5000000   0.5000000), wk =   0.0000000
        k(   17) = (  -0.2500000  -0.2500000   0.2500000), wk =   0.1875000
        k(   18) = (   0.2500000  -0.7500000   0.7500000), wk =   0.0000000
        k(   19) = (   0.5000000   0.5000000  -0.5000000), wk =   0.0937500
        k(   20) = (   1.0000000   0.0000000   0.0000000), wk =   0.0000000
        k(   21) = (   0.7500000   0.2500000  -0.7500000), wk =   0.3750000
        k(   22) = (   1.2500000  -0.2500000  -0.2500000), wk =   0.0000000
        k(   23) = (  -0.7500000  -0.2500000  -0.7500000), wk =   0.1875000
        k(   24) = (  -0.2500000  -0.7500000  -0.2500000), wk =   0.0000000
        k(   25) = (   0.5000000   0.0000000  -0.5000000), wk =   0.1875000
        k(   26) = (   1.0000000  -0.5000000   0.0000000), wk =   0.0000000

     Dense  grid:    16889 G-vectors     FFT dimensions: (  36,  36,  36)

     Estimated max dynamical RAM per process >      18.33 MB

     The potential is recalculated from file :
     ./tmp/_ph0/Si.save/charge-density

     Starting wfcs are    8 atomic wfcs

     Band Structure Calculation
     Davidson diagonalization with overlap

     ethr =  1.25E-10,  avg # of iterations = 10.5

     total cpu time spent up to now is        1.4 secs

     End of band structure calculation

          k = 0.0000 0.0000 0.0000 (  2109 PWs)   bands (ev):

    -5.7199   6.2527   6.2527   6.2527

          k = 0.5000-0.5000 0.5000 (  2120 PWs)   bands (ev):

    -3.3835  -0.7283   5.0492   5.0492

          k =-0.2500 0.2500-0.2500 (  2106 PWs)   bands (ev):

    -4.9189   2.3187   5.4891   5.4891

          k = 0.2500-0.2500 0.2500 (  2106 PWs)   bands (ev):

    -4.9189   2.3187   5.4891   5.4891

          k = 0.5000-0.5000 0.5000 (  2120 PWs)   bands (ev):

    -3.3835  -0.7283   5.0492   5.0492

          k = 1.0000-1.0000 1.0000 (  2109 PWs)   bands (ev):

    -5.7199   6.2527   6.2527   6.2527

          k = 0.0000 0.5000 0.0000 (  2085 PWs)   bands (ev):

    -4.6363   2.7341   4.3545   4.3545

          k = 0.5000 0.0000 0.5000 (  2119 PWs)   bands (ev):

    -3.6727   0.7676   2.4875   4.9192

          k = 0.7500-0.2500 0.7500 (  2123 PWs)   bands (ev):

    -2.9973  -0.1361   2.7074   4.0391

          k = 1.2500-0.7500 1.2500 (  2106 PWs)   bands (ev):

    -4.9189   2.3187   5.4891   5.4891

          k = 0.5000 0.0000 0.5000 (  2119 PWs)   bands (ev):

    -3.6727   0.7676   2.4875   4.9192

          k = 1.0000-0.5000 1.0000 (  2085 PWs)   bands (ev):

    -4.6363   2.7341   4.3545   4.3545

          k = 0.0000-1.0000 0.0000 (  2100 PWs)   bands (ev):

    -1.5698  -1.5698   3.3901   3.3901

          k = 0.5000-1.5000 0.5000 (  2120 PWs)   bands (ev):

    -3.3835  -0.7283   5.0492   5.0492

          k =-0.5000-1.0000 0.0000 (  2148 PWs)   bands (ev):

    -1.4047  -1.4047   2.3865   2.3865

          k = 0.0000-1.5000 0.5000 (  2119 PWs)   bands (ev):

    -3.6727   0.7676   2.4875   4.9192

          k =-0.2500-0.2500 0.2500 (  2106 PWs)   bands (ev):

    -4.9189   2.3187   5.4891   5.4891

          k = 0.2500-0.7500 0.7500 (  2123 PWs)   bands (ev):

    -2.9973  -0.1361   2.7074   4.0391

          k = 0.5000 0.5000-0.5000 (  2120 PWs)   bands (ev):

    -3.3835  -0.7283   5.0492   5.0492

          k = 1.0000 0.0000 0.0000 (  2100 PWs)   bands (ev):

    -1.5698  -1.5698   3.3901   3.3901

          k = 0.7500 0.2500-0.7500 (  2123 PWs)   bands (ev):

    -2.9973  -0.1361   2.7074   4.0391

          k = 1.2500-0.2500-0.2500 (  2123 PWs)   bands (ev):

    -2.9973  -0.1361   2.7074   4.0391

          k =-0.7500-0.2500-0.7500 (  2123 PWs)   bands (ev):

    -2.9973  -0.1361   2.7074   4.0391

          k =-0.2500-0.7500-0.2500 (  2123 PWs)   bands (ev):

    -2.9973  -0.1361   2.7074   4.0391

          k = 0.5000 0.0000-0.5000 (  2119 PWs)   bands (ev):

    -3.6727   0.7676   2.4875   4.9192

          k = 1.0000-0.5000 0.0000 (  2148 PWs)   bands (ev):

    -1.4047  -1.4047   2.3865   2.3865

     highest occupied level (ev):     6.2527

     Writing output data file Si.save/

                                                                                

     bravais-lattice index     =            2
     lattice parameter (alat)  =      10.2625  a.u.
     unit-cell volume          =     270.2088 (a.u.)^3
     number of atoms/cell      =            2
     number of atomic types    =            1
     kinetic-energy cut-off    =      60.0000  Ry
     charge density cut-off    =     240.0000  Ry
     convergence threshold     =      1.0E-16
     beta                      =       0.7000
     number of iterations used =            4
     Exchange-correlation      = PBE ( 1  4  3  4 0 0)


     celldm(1)=   10.26250  celldm(2)=    0.00000  celldm(3)=    0.00000
     celldm(4)=    0.00000  celldm(5)=    0.00000  celldm(6)=    0.00000

     crystal axes: (cart. coord. in units of alat)
               a(1) = ( -0.5000  0.0000  0.5000 )  
               a(2) = (  0.0000  0.5000  0.5000 )  
               a(3) = ( -0.5000  0.5000  0.0000 )  

     reciprocal axes: (cart. coord. in units 2 pi/alat)
               b(1) = ( -1.0000 -1.0000  1.0000 )  
               b(2) = (  1.0000  1.0000  1.0000 )  
               b(3) = ( -1.0000  1.0000 -1.0000 )  


     Atoms inside the unit cell: 

     Cartesian axes

     site n.  atom      mass           positions (alat units)
        1     Si 207.2000   tau(    1) = (    0.00000    0.00000    0.00000  )
        2     Si 207.2000   tau(    2) = (    0.25000    0.25000    0.25000  )

     Computing dynamical matrix for 
                    q = (   0.5000000  -0.5000000   0.5000000 )

     13 Sym.Ops. (with q -> -q+G )


     G cutoff =  640.2622  (  16889 G-vectors)     FFT grid: ( 36, 36, 36)
     number of k points=    26

     PseudoPot. # 1 for Si read from file:
     ./Si.pbe-n-rrkjus_psl.0.1.UPF
     MD5 check sum: 7b4bf2ea543dc08298462eff3fb52eea
     Pseudo is Ultrasoft + core correction, Zval =  4.0
     Generated using "atomic" code by A. Dal Corso v.5.0.2 svn rev. 9415
     Using radial grid of 1141 points,  4 beta functions with: 
                l(1) =   0
                l(2) =   0
                l(3) =   1
                l(4) =   1
     Q(r) pseudized with 0 coefficients 



     Atomic displacements:
     There are   4 irreducible representations

     Representation     1      1 modes -  To be done

     Representation     2      1 modes -  To be done

     Representation     3      2 modes -  To be done

     Representation     4      2 modes -  To be done



     Alpha used in Ewald sum =   2.5000
     PHONON       :     29.04s CPU     29.32s WALL



     Representation #  1 mode #   1

     Self-consistent Calculation

      iter #   1 total cpu time :    29.7 secs   av.it.:   5.1
      thresh= 1.000E-02 alpha_mix =  0.700 |ddv_scf|^2 =  4.270E-06

      iter #   2 total cpu time :    30.4 secs   av.it.:   9.4
      thresh= 2.066E-04 alpha_mix =  0.700 |ddv_scf|^2 =  3.552E-06

      iter #   3 total cpu time :    30.9 secs   av.it.:   8.9
      thresh= 1.885E-04 alpha_mix =  0.700 |ddv_scf|^2 =  6.277E-09

      iter #   4 total cpu time :    31.5 secs   av.it.:   9.3
      thresh= 7.923E-06 alpha_mix =  0.700 |ddv_scf|^2 =  6.762E-11

      iter #   5 total cpu time :    32.1 secs   av.it.:   8.9
      thresh= 8.223E-07 alpha_mix =  0.700 |ddv_scf|^2 =  6.584E-13

      iter #   6 total cpu time :    32.7 secs   av.it.:   9.3
      thresh= 8.114E-08 alpha_mix =  0.700 |ddv_scf|^2 =  1.309E-14

      iter #   7 total cpu time :    33.3 secs   av.it.:   9.1
      thresh= 1.144E-08 alpha_mix =  0.700 |ddv_scf|^2 =  2.045E-16

      iter #   8 total cpu time :    33.9 secs   av.it.:   9.1
      thresh= 1.430E-09 alpha_mix =  0.700 |ddv_scf|^2 =  6.495E-18

     End of self-consistent calculation

     Convergence has been achieved 


     Representation #  2 mode #   2

     Self-consistent Calculation

      iter #   1 total cpu time :    34.4 secs   av.it.:   6.3
      thresh= 1.000E-02 alpha_mix =  0.700 |ddv_scf|^2 =  6.311E-05

      iter #   2 total cpu time :    35.1 secs   av.it.:   9.8
      thresh= 7.944E-04 alpha_mix =  0.700 |ddv_scf|^2 =  2.117E-04

      iter #   3 total cpu time :    35.6 secs   av.it.:   8.8
      thresh= 1.455E-03 alpha_mix =  0.700 |ddv_scf|^2 =  2.862E-08

      iter #   4 total cpu time :    36.3 secs   av.it.:   9.5
      thresh= 1.692E-05 alpha_mix =  0.700 |ddv_scf|^2 =  6.248E-10

      iter #   5 total cpu time :    36.9 secs   av.it.:  10.1
      thresh= 2.500E-06 alpha_mix =  0.700 |ddv_scf|^2 =  2.729E-11

      iter #   6 total cpu time :    37.5 secs   av.it.:   9.9
      thresh= 5.224E-07 alpha_mix =  0.700 |ddv_scf|^2 =  9.011E-13

      iter #   7 total cpu time :    38.1 secs   av.it.:   9.1
      thresh= 9.493E-08 alpha_mix =  0.700 |ddv_scf|^2 =  3.755E-15

      iter #   8 total cpu time :    38.7 secs   av.it.:   9.2
      thresh= 6.128E-09 alpha_mix =  0.700 |ddv_scf|^2 =  5.083E-17

     End of self-consistent calculation

     Convergence has been achieved 


     Representation #  3 modes #   3  4

     Self-consistent Calculation

      iter #   1 total cpu time :    39.6 secs   av.it.:   5.2
      thresh= 1.000E-02 alpha_mix =  0.700 |ddv_scf|^2 =  1.592E-07

      iter #   2 total cpu time :    40.9 secs   av.it.:  10.2
      thresh= 3.990E-05 alpha_mix =  0.700 |ddv_scf|^2 =  1.510E-08

      iter #   3 total cpu time :    42.2 secs   av.it.:  10.0
      thresh= 1.229E-05 alpha_mix =  0.700 |ddv_scf|^2 =  8.924E-10

      iter #   4 total cpu time :    43.4 secs   av.it.:   9.9
      thresh= 2.987E-06 alpha_mix =  0.700 |ddv_scf|^2 =  9.252E-13

      iter #   5 total cpu time :    44.7 secs   av.it.:  10.2
      thresh= 9.619E-08 alpha_mix =  0.700 |ddv_scf|^2 =  4.550E-15

      iter #   6 total cpu time :    46.0 secs   av.it.:   9.6
      thresh= 6.745E-09 alpha_mix =  0.700 |ddv_scf|^2 =  1.081E-16

      iter #   7 total cpu time :    47.2 secs   av.it.:   9.9
      thresh= 1.040E-09 alpha_mix =  0.700 |ddv_scf|^2 =  2.097E-18

     End of self-consistent calculation

     Convergence has been achieved 


     Representation #  4 modes #   5  6

     Self-consistent Calculation

      iter #   1 total cpu time :    48.1 secs   av.it.:   5.0
      thresh= 1.000E-02 alpha_mix =  0.700 |ddv_scf|^2 =  6.304E-08

      iter #   2 total cpu time :    49.4 secs   av.it.:  10.5
      thresh= 2.511E-05 alpha_mix =  0.700 |ddv_scf|^2 =  4.532E-09

      iter #   3 total cpu time :    50.6 secs   av.it.:  10.3
      thresh= 6.732E-06 alpha_mix =  0.700 |ddv_scf|^2 =  3.813E-11

      iter #   4 total cpu time :    52.0 secs   av.it.:  10.6
      thresh= 6.175E-07 alpha_mix =  0.700 |ddv_scf|^2 =  9.983E-13

      iter #   5 total cpu time :    53.3 secs   av.it.:  10.7
      thresh= 9.991E-08 alpha_mix =  0.700 |ddv_scf|^2 =  1.624E-14

      iter #   6 total cpu time :    54.6 secs   av.it.:  10.8
      thresh= 1.274E-08 alpha_mix =  0.700 |ddv_scf|^2 =  7.868E-17

     End of self-consistent calculation

     Convergence has been achieved 

     Number of q in the star =    4
     List of q in the star:
          1   0.500000000  -0.500000000   0.500000000
          2   0.500000000   0.500000000  -0.500000000
          3  -0.500000000  -0.500000000  -0.500000000
          4   0.500000000  -0.500000000  -0.500000000

     Diagonalizing the dynamical matrix

     q = (    0.500000000  -0.500000000   0.500000000 ) 

 **************************************************************************
     freq (    1) =       1.156511 [THz] =      38.577049 [cm-1]
     freq (    2) =       1.156511 [THz] =      38.577049 [cm-1]
     freq (    3) =       4.227802 [THz] =     141.024305 [cm-1]
     freq (    4) =       4.501559 [THz] =     150.155860 [cm-1]
     freq (    5) =       5.410336 [THz] =     180.469385 [cm-1]
     freq (    6) =       5.410336 [THz] =     180.469385 [cm-1]
 **************************************************************************

     Calculation of q =    0.0000000  -1.0000000   0.0000000

     G-vector sticks info
     --------------------
     sticks:   dense  smooth     PW     G-vecs:    dense   smooth      PW
     Sum         859     859    301                16889    16889    3383



     bravais-lattice index     =            2
     lattice parameter (alat)  =      10.2625  a.u.
     unit-cell volume          =     270.2088 (a.u.)^3
     number of atoms/cell      =            2
     number of atomic types    =            1
     number of electrons       =         8.00
     number of Kohn-Sham states=            4
     kinetic-energy cutoff     =      60.0000  Ry
     charge density cutoff     =     240.0000  Ry
     Exchange-correlation      = PBE ( 1  4  3  4 0 0)

     celldm(1)=  10.262500  celldm(2)=   0.000000  celldm(3)=   0.000000
     celldm(4)=   0.000000  celldm(5)=   0.000000  celldm(6)=   0.000000

     crystal axes: (cart. coord. in units of alat)
               a(1) = (  -0.500000   0.000000   0.500000 )  
               a(2) = (   0.000000   0.500000   0.500000 )  
               a(3) = (  -0.500000   0.500000   0.000000 )  

     reciprocal axes: (cart. coord. in units 2 pi/alat)
               b(1) = ( -1.000000 -1.000000  1.000000 )  
               b(2) = (  1.000000  1.000000  1.000000 )  
               b(3) = ( -1.000000  1.000000 -1.000000 )  


     PseudoPot. # 1 for Si read from file:
     ./Si.pbe-n-rrkjus_psl.0.1.UPF
     MD5 check sum: 7b4bf2ea543dc08298462eff3fb52eea
     Pseudo is Ultrasoft + core correction, Zval =  4.0
     Generated using "atomic" code by A. Dal Corso v.5.0.2 svn rev. 9415
     Using radial grid of 1141 points,  4 beta functions with: 
                l(1) =   0
                l(2) =   0
                l(3) =   1
                l(4) =   1
     Q(r) pseudized with 0 coefficients 


     atomic species   valence    mass     pseudopotential
        Si             4.00   207.20000     Si( 1.00)

     48 Sym. Ops., with inversion, found



   Cartesian axes

     site n.     atom                  positions (alat units)
         1           Si  tau(   1) = (   0.0000000   0.0000000   0.0000000  )
         2           Si  tau(   2) = (   0.2500000   0.2500000   0.2500000  )

     number of k points=    26
                       cart. coord. in units 2pi/alat
        k(    1) = (   0.0000000   0.0000000   0.0000000), wk =   0.0312500
        k(    2) = (   0.0000000  -1.0000000   0.0000000), wk =   0.0000000
        k(    3) = (  -0.2500000   0.2500000  -0.2500000), wk =   0.2500000
        k(    4) = (  -0.2500000  -0.7500000  -0.2500000), wk =   0.0000000
        k(    5) = (   0.5000000  -0.5000000   0.5000000), wk =   0.1250000
        k(    6) = (   0.5000000  -1.5000000   0.5000000), wk =   0.0000000
        k(    7) = (   0.0000000   0.5000000   0.0000000), wk =   0.0625000
        k(    8) = (   0.0000000  -0.5000000   0.0000000), wk =   0.0000000
        k(    9) = (   0.7500000  -0.2500000   0.7500000), wk =   0.2500000
        k(   10) = (   0.7500000  -1.2500000   0.7500000), wk =   0.0000000
        k(   11) = (   0.5000000   0.0000000   0.5000000), wk =   0.1250000
        k(   12) = (   0.5000000  -1.0000000   0.5000000), wk =   0.0000000
        k(   13) = (   0.0000000  -1.0000000   0.0000000), wk =   0.0312500
        k(   14) = (   0.0000000  -2.0000000   0.0000000), wk =   0.0000000
        k(   15) = (  -0.5000000  -1.0000000   0.0000000), wk =   0.1250000
        k(   16) = (  -0.5000000  -2.0000000   0.0000000), wk =   0.0000000
        k(   17) = (   0.5000000   0.0000000   0.0000000), wk =   0.1250000
        k(   18) = (   0.5000000  -1.0000000   0.0000000), wk =   0.0000000
        k(   19) = (  -0.2500000   0.7500000   0.7500000), wk =   0.5000000
        k(   20) = (  -0.2500000  -0.2500000   0.7500000), wk =   0.0000000
        k(   21) = (   0.0000000   0.5000000   0.5000000), wk =   0.2500000
        k(   22) = (   0.0000000  -0.5000000   0.5000000), wk =   0.0000000
        k(   23) = (  -1.0000000   0.0000000   0.0000000), wk =   0.0625000
        k(   24) = (  -1.0000000  -1.0000000   0.0000000), wk =   0.0000000
        k(   25) = (   0.0000000  -0.5000000  -1.0000000), wk =   0.0625000
        k(   26) = (   0.0000000  -1.5000000  -1.0000000), wk =   0.0000000

     Dense  grid:    16889 G-vectors     FFT dimensions: (  36,  36,  36)

     Estimated max dynamical RAM per process >      18.34 MB

     The potential is recalculated from file :
     ./tmp/_ph0/Si.save/charge-density

     Starting wfcs are    8 atomic wfcs

     Band Structure Calculation
     Davidson diagonalization with overlap

     ethr =  1.25E-10,  avg # of iterations = 10.3

     total cpu time spent up to now is        2.9 secs

     End of band structure calculation

          k = 0.0000 0.0000 0.0000 (  2109 PWs)   bands (ev):

    -5.7199   6.2527   6.2527   6.2527

          k = 0.0000-1.0000 0.0000 (  2100 PWs)   bands (ev):

    -1.5698  -1.5698   3.3901   3.3901

          k =-0.2500 0.2500-0.2500 (  2106 PWs)   bands (ev):

    -4.9189   2.3187   5.4891   5.4891

          k =-0.2500-0.7500-0.2500 (  2123 PWs)   bands (ev):

    -2.9973  -0.1361   2.7074   4.0391

          k = 0.5000-0.5000 0.5000 (  2120 PWs)   bands (ev):

    -3.3835  -0.7283   5.0492   5.0492

          k = 0.5000-1.5000 0.5000 (  2120 PWs)   bands (ev):

    -3.3835  -0.7283   5.0492   5.0492

          k = 0.0000 0.5000 0.0000 (  2085 PWs)   bands (ev):

    -4.6363   2.7341   4.3545   4.3545

          k = 0.0000-0.5000 0.0000 (  2085 PWs)   bands (ev):

    -4.6363   2.7341   4.3545   4.3545

          k = 0.7500-0.2500 0.7500 (  2123 PWs)   bands (ev):

    -2.9973  -0.1361   2.7074   4.0391

          k = 0.7500-1.2500 0.7500 (  2106 PWs)   bands (ev):

    -4.9189   2.3187   5.4891   5.4891

          k = 0.5000 0.0000 0.5000 (  2119 PWs)   bands (ev):

    -3.6727   0.7676   2.4875   4.9192

          k = 0.5000-1.0000 0.5000 (  2119 PWs)   bands (ev):

    -3.6727   0.7676   2.4875   4.9192

          k = 0.0000-1.0000 0.0000 (  2100 PWs)   bands (ev):

    -1.5698  -1.5698   3.3901   3.3901

          k = 0.0000-2.0000 0.0000 (  2109 PWs)   bands (ev):

    -5.7199   6.2527   6.2527   6.2527

          k =-0.5000-1.0000 0.0000 (  2148 PWs)   bands (ev):

    -1.4047  -1.4047   2.3865   2.3865

          k =-0.5000-2.0000 0.0000 (  2085 PWs)   bands (ev):

    -4.6363   2.7341   4.3545   4.3545

          k = 0.5000 0.0000 0.0000 (  2085 PWs)   bands (ev):

    -4.6363   2.7341   4.3545   4.3545

          k = 0.5000-1.0000 0.0000 (  2148 PWs)   bands (ev):

    -1.4047  -1.4047   2.3865   2.3865

          k =-0.2500 0.7500 0.7500 (  2123 PWs)   bands (ev):

    -2.9973  -0.1361   2.7074   4.0391

          k =-0.2500-0.2500 0.7500 (  2123 PWs)   bands (ev):

    -2.9973  -0.1361   2.7074   4.0391

          k = 0.0000 0.5000 0.5000 (  2119 PWs)   bands (ev):

    -3.6727   0.7676   2.4875   4.9192

          k = 0.0000-0.5000 0.5000 (  2119 PWs)   bands (ev):

    -3.6727   0.7676   2.4875   4.9192

          k =-1.0000 0.0000 0.0000 (  2100 PWs)   bands (ev):

    -1.5698  -1.5698   3.3901   3.3901

          k =-1.0000-1.0000 0.0000 (  2100 PWs)   bands (ev):

    -1.5698  -1.5698   3.3901   3.3901

          k = 0.0000-0.5000-1.0000 (  2148 PWs)   bands (ev):

    -1.4047  -1.4047   2.3865   2.3865

          k = 0.0000-1.5000-1.0000 (  2148 PWs)   bands (ev):

    -1.4047  -1.4047   2.3865   2.3865

     highest occupied level (ev):     6.2527

     Writing output data file Si.save/

                                                                                

     bravais-lattice index     =            2
     lattice parameter (alat)  =      10.2625  a.u.
     unit-cell volume          =     270.2088 (a.u.)^3
     number of atoms/cell      =            2
     number of atomic types    =            1
     kinetic-energy cut-off    =      60.0000  Ry
     charge density cut-off    =     240.0000  Ry
     convergence threshold     =      1.0E-16
     beta                      =       0.7000
     number of iterations used =            4
     Exchange-correlation      = PBE ( 1  4  3  4 0 0)


     celldm(1)=   10.26250  celldm(2)=    0.00000  celldm(3)=    0.00000
     celldm(4)=    0.00000  celldm(5)=    0.00000  celldm(6)=    0.00000

     crystal axes: (cart. coord. in units of alat)
               a(1) = ( -0.5000  0.0000  0.5000 )  
               a(2) = (  0.0000  0.5000  0.5000 )  
               a(3) = ( -0.5000  0.5000  0.0000 )  

     reciprocal axes: (cart. coord. in units 2 pi/alat)
               b(1) = ( -1.0000 -1.0000  1.0000 )  
               b(2) = (  1.0000  1.0000  1.0000 )  
               b(3) = ( -1.0000  1.0000 -1.0000 )  


     Atoms inside the unit cell: 

     Cartesian axes

     site n.  atom      mass           positions (alat units)
        1     Si 207.2000   tau(    1) = (    0.00000    0.00000    0.00000  )
        2     Si 207.2000   tau(    2) = (    0.25000    0.25000    0.25000  )

     Computing dynamical matrix for 
                    q = (   0.0000000  -1.0000000   0.0000000 )

     17 Sym.Ops. (with q -> -q+G )


     G cutoff =  640.2622  (  16889 G-vectors)     FFT grid: ( 36, 36, 36)
     number of k points=    26

     PseudoPot. # 1 for Si read from file:
     ./Si.pbe-n-rrkjus_psl.0.1.UPF
     MD5 check sum: 7b4bf2ea543dc08298462eff3fb52eea
     Pseudo is Ultrasoft + core correction, Zval =  4.0
     Generated using "atomic" code by A. Dal Corso v.5.0.2 svn rev. 9415
     Using radial grid of 1141 points,  4 beta functions with: 
                l(1) =   0
                l(2) =   0
                l(3) =   1
                l(4) =   1
     Q(r) pseudized with 0 coefficients 



     Atomic displacements:
     There are   3 irreducible representations

     Representation     1      2 modes -  To be done

     Representation     2      2 modes -  To be done

     Representation     3      2 modes -  To be done



     Alpha used in Ewald sum =   2.5000
     PHONON       :     56.47s CPU     57.09s WALL



     Representation #  1 modes #   1  2

     Self-consistent Calculation

      iter #   1 total cpu time :    58.0 secs   av.it.:   5.8
      thresh= 1.000E-02 alpha_mix =  0.700 |ddv_scf|^2 =  5.390E-07

      iter #   2 total cpu time :    59.2 secs   av.it.:  10.2
      thresh= 7.342E-05 alpha_mix =  0.700 |ddv_scf|^2 =  1.505E-07

      iter #   3 total cpu time :    60.5 secs   av.it.:  10.0
      thresh= 3.880E-05 alpha_mix =  0.700 |ddv_scf|^2 =  1.646E-09

      iter #   4 total cpu time :    61.8 secs   av.it.:  10.0
      thresh= 4.057E-06 alpha_mix =  0.700 |ddv_scf|^2 =  1.252E-12

      iter #   5 total cpu time :    63.0 secs   av.it.:   9.3
      thresh= 1.119E-07 alpha_mix =  0.700 |ddv_scf|^2 =  2.538E-14

      iter #   6 total cpu time :    64.2 secs   av.it.:   9.4
      thresh= 1.593E-08 alpha_mix =  0.700 |ddv_scf|^2 =  1.390E-16

      iter #   7 total cpu time :    65.5 secs   av.it.:   9.5
      thresh= 1.179E-09 alpha_mix =  0.700 |ddv_scf|^2 =  4.681E-19

     End of self-consistent calculation

     Convergence has been achieved 


     Representation #  2 modes #   3  4

     Self-consistent Calculation

      iter #   1 total cpu time :    66.5 secs   av.it.:   6.0
      thresh= 1.000E-02 alpha_mix =  0.700 |ddv_scf|^2 =  2.982E-06

      iter #   2 total cpu time :    67.8 secs   av.it.:  10.5
      thresh= 1.727E-04 alpha_mix =  0.700 |ddv_scf|^2 =  4.158E-06

      iter #   3 total cpu time :    69.0 secs   av.it.:   9.8
      thresh= 2.039E-04 alpha_mix =  0.700 |ddv_scf|^2 =  2.687E-09

      iter #   4 total cpu time :    70.3 secs   av.it.:  10.1
      thresh= 5.184E-06 alpha_mix =  0.700 |ddv_scf|^2 =  7.105E-11

      iter #   5 total cpu time :    71.6 secs   av.it.:  10.5
      thresh= 8.429E-07 alpha_mix =  0.700 |ddv_scf|^2 =  1.743E-12

      iter #   6 total cpu time :    72.9 secs   av.it.:  10.3
      thresh= 1.320E-07 alpha_mix =  0.700 |ddv_scf|^2 =  3.030E-14

      iter #   7 total cpu time :    74.2 secs   av.it.:  10.1
      thresh= 1.741E-08 alpha_mix =  0.700 |ddv_scf|^2 =  5.935E-16

      iter #   8 total cpu time :    75.5 secs   av.it.:  10.2
      thresh= 2.436E-09 alpha_mix =  0.700 |ddv_scf|^2 =  7.607E-18

     End of self-consistent calculation

     Convergence has been achieved 


     Representation #  3 modes #   5  6

     Self-consistent Calculation

      iter #   1 total cpu time :    76.3 secs   av.it.:   4.3
      thresh= 1.000E-02 alpha_mix =  0.700 |ddv_scf|^2 =  5.873E-08

      iter #   2 total cpu time :    77.6 secs   av.it.:   9.9
      thresh= 2.423E-05 alpha_mix =  0.700 |ddv_scf|^2 =  4.019E-09

      iter #   3 total cpu time :    78.8 secs   av.it.:   9.9
      thresh= 6.339E-06 alpha_mix =  0.700 |ddv_scf|^2 =  1.960E-11

      iter #   4 total cpu time :    80.1 secs   av.it.:   9.9
      thresh= 4.428E-07 alpha_mix =  0.700 |ddv_scf|^2 =  2.493E-13

      iter #   5 total cpu time :    81.4 secs   av.it.:  10.2
      thresh= 4.993E-08 alpha_mix =  0.700 |ddv_scf|^2 =  6.915E-16

      iter #   6 total cpu time :    82.7 secs   av.it.:  10.2
      thresh= 2.630E-09 alpha_mix =  0.700 |ddv_scf|^2 =  1.099E-17

     End of self-consistent calculation

     Convergence has been achieved 

     Number of q in the star =    3
     List of q in the star:
          1   0.000000000  -1.000000000   0.000000000
          2  -1.000000000   0.000000000   0.000000000
          3   0.000000000   0.000000000   1.000000000

     Diagonalizing the dynamical matrix

     q = (    0.000000000  -1.000000000   0.000000000 ) 

 **************************************************************************
     freq (    1) =       1.539269 [THz] =      51.344482 [cm-1]
     freq (    2) =       1.539269 [THz] =      51.344482 [cm-1]
     freq (    3) =       4.500142 [THz] =     150.108583 [cm-1]
     freq (    4) =       4.500142 [THz] =     150.108583 [cm-1]
     freq (    5) =       5.048776 [THz] =     168.409054 [cm-1]
     freq (    6) =       5.048776 [THz] =     168.409054 [cm-1]
 **************************************************************************

     init_run     :      0.37s CPU      0.37s WALL (       2 calls)
     electrons    :      2.48s CPU      2.50s WALL (       2 calls)

     Called by init_run:
     wfcinit      :      0.00s CPU      0.00s WALL (       2 calls)
     potinit      :      0.03s CPU      0.03s WALL (       2 calls)
     hinit0       :      0.32s CPU      0.32s WALL (       2 calls)

     Called by electrons:
     c_bands      :      2.48s CPU      2.50s WALL (       2 calls)
     v_of_rho     :      0.04s CPU      0.04s WALL (       3 calls)
     newd         :      0.02s CPU      0.02s WALL (       3 calls)

     Called by c_bands:
     init_us_2    :      0.26s CPU      0.27s WALL (    1145 calls)
     cegterg      :      2.08s CPU      2.09s WALL (      52 calls)

     Called by sum_band:

     Called by *egterg:
     h_psi        :     49.06s CPU     49.34s WALL (   17703 calls)
     s_psi        :      4.56s CPU      4.59s WALL (   36356 calls)
     g_psi        :      0.02s CPU      0.02s WALL (     542 calls)
     cdiaghg      :      0.01s CPU      0.01s WALL (     594 calls)

     Called by h_psi:
     h_psi:pot    :     48.92s CPU     49.19s WALL (   17703 calls)
     h_psi:calbec :      2.26s CPU      2.27s WALL (   17703 calls)
     vloc_psi     :     44.42s CPU     44.67s WALL (   17703 calls)
     add_vuspsi   :      2.21s CPU      2.23s WALL (   17703 calls)

     General routines
     calbec       :      5.34s CPU      5.38s WALL (   41720 calls)
     fft          :      1.29s CPU      1.31s WALL (    2515 calls)
     ffts         :      0.16s CPU      0.16s WALL (     324 calls)
     fftw         :     47.48s CPU     47.83s WALL (  156526 calls)
     davcio       :      0.23s CPU      0.45s WALL (    8134 calls)

     Parallel routines

     PHONON       :   1m21.88s CPU   1m22.77s WALL

     INITIALIZATION: 
     phq_setup    :      0.10s CPU      0.10s WALL (       3 calls)
     phq_init     :      2.75s CPU      2.77s WALL (       3 calls)

     phq_init     :      2.75s CPU      2.77s WALL (       3 calls)
     set_drhoc    :      1.27s CPU      1.27s WALL (       9 calls)
     init_vloc    :      0.00s CPU      0.00s WALL (       3 calls)
     init_us_1    :      0.40s CPU      0.40s WALL (       3 calls)
     newd         :      0.02s CPU      0.02s WALL (       3 calls)
     dvanqq       :      0.28s CPU      0.28s WALL (       3 calls)
     drho         :      0.67s CPU      0.68s WALL (       3 calls)

     DYNAMICAL MATRIX:
     dynmat0      :      0.95s CPU      0.96s WALL (       3 calls)
     phqscf       :     65.11s CPU     65.82s WALL (       3 calls)
     dynmatrix    :      0.00s CPU      0.00s WALL (       3 calls)

     phqscf       :     65.11s CPU     65.82s WALL (       3 calls)
     solve_linter :     64.40s CPU     65.09s WALL (       9 calls)
     drhodv       :      0.20s CPU      0.20s WALL (       9 calls)

     dynmat0      :      0.95s CPU      0.96s WALL (       3 calls)
     dynmat_us    :      0.06s CPU      0.06s WALL (       3 calls)
     d2ionq       :      0.01s CPU      0.01s WALL (       3 calls)
     dynmatcc     :      0.89s CPU      0.89s WALL (       3 calls)

     dynmat_us    :      0.06s CPU      0.06s WALL (       3 calls)
     addusdynmat  :      0.00s CPU      0.00s WALL (       3 calls)

     phqscf       :     65.11s CPU     65.82s WALL (       3 calls)
     solve_linter :     64.40s CPU     65.09s WALL (       9 calls)

     solve_linter :     64.40s CPU     65.09s WALL (       9 calls)
     dvqpsi_us    :      1.04s CPU      1.05s WALL (     252 calls)
     ortho        :      0.56s CPU      0.56s WALL (    1572 calls)
     cgsolve      :     56.57s CPU     56.89s WALL (    1572 calls)
     incdrhoscf   :      4.90s CPU      4.98s WALL (    1572 calls)
     addusddens   :      1.02s CPU      1.02s WALL (      71 calls)
     vpsifft      :      3.34s CPU      3.38s WALL (    1176 calls)
     dv_of_drho   :      1.14s CPU      1.14s WALL (     144 calls)
     mix_pot      :      0.18s CPU      0.26s WALL (      69 calls)
     psymdvscf    :      2.38s CPU      2.38s WALL (      62 calls)
     newdq        :      1.37s CPU      1.40s WALL (      69 calls)
     adddvscf     :      0.19s CPU      0.19s WALL (    1320 calls)
     drhodvus     :      0.01s CPU      0.01s WALL (       9 calls)

     dvqpsi_us    :      1.04s CPU      1.05s WALL (     252 calls)
     dvqpsi_us_on :      0.16s CPU      0.16s WALL (     252 calls)

     cgsolve      :     56.57s CPU     56.89s WALL (    1572 calls)
     ch_psi       :     55.37s CPU     55.67s WALL (   17057 calls)

     ch_psi       :     55.37s CPU     55.67s WALL (   17057 calls)
     h_psi        :     49.06s CPU     49.34s WALL (   17703 calls)
     last         :      5.92s CPU      5.95s WALL (   17057 calls)

     h_psi        :     49.06s CPU     49.34s WALL (   17703 calls)
     add_vuspsi   :      2.21s CPU      2.23s WALL (   17703 calls)

     incdrhoscf   :      4.90s CPU      4.98s WALL (    1572 calls)
     addusdbec    :      0.25s CPU      0.25s WALL (    1776 calls)

     drhodvus     :      0.01s CPU      0.01s WALL (       9 calls)

      General routines
     calbec       :      5.34s CPU      5.38s WALL (   41720 calls)
     fft          :      1.29s CPU      1.31s WALL (    2515 calls)
     ffts         :      0.16s CPU      0.16s WALL (     324 calls)
     fftw         :     47.48s CPU     47.83s WALL (  156526 calls)
     davcio       :      0.23s CPU      0.45s WALL (    8134 calls)
     write_rec    :      0.07s CPU      0.10s WALL (      78 calls)


     PHONON       :   1m21.88s CPU   1m22.77s WALL


   This run was terminated on:  11:14:59   8Apr2022            

=------------------------------------------------------------------------------=
   JOB DONE.
=------------------------------------------------------------------------------=
