1000
Atoms. Timestep: 8000
1 1.10557 4.7517 4.6268
1 25.1453 5.80062 8.82528
1 5.57987 23.9275 19.0769
1 11.2656 9.02596 2.75353
1 13.478 11.6822 9.45359
1 26.8676 0.736005 7.38703
1 6.80485 16.2028 22.0867
1 13.3365 26.9695 25.3264
1 25.3265 17.2722 12.5765
1 3.10847 7.93921 7.78953
1 5.33166 16.9336 16.3607
1 3.63981 0.16633 24.6606
1 4.94373 14.4201 24.7213
1 23.5913 10.0108 1.41089
1 6.6292 4.80489 6.36091
1 20.2768 0.274692 27.0492
1 0.257666 23.9032 9.53981
1 2.57261 25.112 23.1708
1 5.45326 5.22471 3.84951
1 12.1042 19.0469 6.92458
1 16.7232 22.5587 7.45881
1 3.78579 0.816346 1.28798
1 3.56204 20.0218 7.06234
1 13.3026 1.71968 0.330569
1 11.4301 10.983 12.2643
1 1.32643 18.5216 23.6601
1 3.27685 2.5159 25.2132
1 11.3051 17.6931 4.67258
1 8.80706 3.39337 6.30085
1 18.6845 2.62028 15.5218
1 5.60569 15.4846 2.41212
1 23.2707 26.7978 7.16967
1 22.3051 21.5653 15.8671
1 26.7281 8.67579 14.342
1 3.13838 3.60133 7.72529
1 16.5217 9.06399 11.9502
1 11.7584 1.16255 24.0754
1 4.01511 24.9601 4.12967
1 7.61139 0.661218 6.32691
1 3.51194 9.59787 24.8793
1 1.24817 9.54353 18.2491
1 20.2511 13.1667 25.1103
1 23.0231 7.16768 26.788
1 9.10159 17.5872 3.09123
1 23.9137 14.6662 10.9275
1 0.802616 8.20891 24.2696
1 12.3708 5.7222 3.41169
1 15.6511 7.90817 21.9113
1 3.09218 3.47114 5.32042
1 23.5833 13.743 1.35211
1 12.702 24.2782 18.7848
1 5.05247 8.07786 23.4548
1 24.6862 9.56205 6.3605
1 18.8939 11.9039 11.0376
1 9.17634 23.8224 27.0333
1 10.9835 15.6836 26.1512
1 23.3953 1.30795 11.2265
1 12.6856 10.4757 14.7104
1 17.8753 18.8602 2.21276
1 0.767045 13.0656 10.4216
1 3.45847 11.391 2.28192
1 9.77634 7.13692 2.95951
1 14.6996 8.02359 7.86447
1 21.7672 11.1905 21.7528
1 19.6389 23.2671 22.1569
1 17.3149 21.8932 15.4844
1 17.8079 9.79218 9.86975
1 16.0795 6.93639 15.7042
1 23.8018 5.7413 1.5883
1 9.30386 16.9318 6.66009
1 20.4407 21.5367 2.48391
1 5.7586 10.6764 22.9494
1 21.3834 8.71903 0.832752
1 20.0767 14.2248 20.9146
1 22.7036 21.1973 0.81963
1 0.00476788 17.6992 19.8148
1 7.12142 1.81991 21.5232
1 14.9024 5.16356 14.2569
1 25.0477 21.45 3.50394
1 23.8769 23.8623 0.428449
1 15.364 15.0485 0.840136
1 23.1381 12.4257 9.51877
1 20.0869 24.427 2.41459
1 25.7663 13.4122 16.4446
1 20.0172 14.6307 8.14495
1 9.82318 14.871 10.4067
1 16.8909 10.755 5.73615
1 3.36907 7.16323 20.3285
1 7.36639 7.04159 5.03248
1 8.3677 20.1581 21.2869
1 13.1889 15.4957 11.3929
1 3.64869 13.9529 8.04877
1 15.2443 9.07402 26.703
1 17.2282 19.587 9.33583
1 3.7346 7.83564 2.55476
1 5.61581 12.271 26.6352
1 8.48261 14.6037 6.25179
1 6.22819 12.3229 6.24032
1 17.781 10.7241 26.6534
1 3.35904 12.16 25.5183
1 18.1728 16.2729 1.49037
1 11.2435 15.0726 4.82252
1 4.16592 20.9423 18.7246
1 19.9626 8.77648 4.73085
1 14.3047 12.2987 4.37781
1 15.7116 11.737 14.991
1 12.5756 8.85151 4.67419
1 19.8898 22.0468 19.1766
1 24.1914 15.9365 25.8878
1 10.1842 11.6566 9.60219
1 2.2962 12.5907 13.6476
1 5.32552 10.4274 1.10371
1 1.04411 10.5283 9.90417
1 20.2485 12.2631 8.79728
1 13.3273 26.339 2.91142
1 18.9909 9.72416 6.77473
1 25.2111 0.906446 22.387
1 2.31553 16.3028 12.3474
1 4.24303 25.2312 1.72275
1 11.3786 16.6202 7.67196
1 25.3915 13.9492 3.25893
1 7.76712 18.0396 8.36261
1 2.19576 26.4736 4.85031
1 23.7193 16.5694 1.14529
1 6.02608 4.45638 15.8232
1 3.41377 20.8333 2.77115
1 3.02502 23.1269 0.728277
1 16.2415 18.861 16.3593
1 22.0602 17.7691 4.14031
1 5.63648 5.78706 17.7011
1 25.9509 1.68684 1.45869
1 26.6048 20.112 24.7757
1 15.0505 10.2695 20.7781
1 0.66515 14.4155 21.3099
1 7.81463 13.1954 26.5658
1 5.8667 13.1851 2.22247
1 26.0512 10.8373 1.97604
1 3.71232 16.2605 1.10369
1 18.5997 17.8352 5.35145
1 1.11057 23.8074 18.6548
1 17.2766 8.93351 16.8122
1 23.3579 17.4453 8.65949
1 22.9989 13.6264 16.3056
1 18.7 1.48093 12.1237
1 17.1726 8.36477 25.2315
1 20.9236 0.897932 9.03536
1 20.3492 15.4547 10.5469
1 0.26758 20.5161 10.5812
1 22.1303 17.3752 25.0154
1 13.7475 23.2523 5.7989
1 6.36284 23.5902 11.5426
1 23.2768 17.5181 19.9476
1 10.8222 5.48322 24.1708
1 14.8665 22.9021 17.8022
1 13.5303 10.7772 27.0155
1 4.93571 2.84675 11.7233
1 24.7153 6.0961 22.9837
1 9.66322 7.90097 9.81062
1 16.5846 27.1466 17.9167
1 2.8453 6.67931 24.4052
1 2.65806 12.5739 18.5029
1 24.6351 1.76545 26.7335
1 5.94478 6.34625 0.461731
1 1.23909 25.6318 25.8066
1 17.2096 11.4661 8.36674
1 18.3335 5.38085 9.38704
1 7.48238 7.71647 10.9183
1 8.26261 12.5827 3.22662
1 0.00163007 19.6497 17.0966
1 9.35341 21.0599 0.186511
1 0.497108 23.6372 27.0802
1 9.77005 22.7759 24.3645
1 12.5653 14.0865 1.21474
1 1.00878 18.6626 5.34613
1 18.1548 24.5125 25.0223
1 21.6733 17.5149 0.270837
1 17.6615 7.98367 20.3019
1 8.63885 10.8251 6.13429
1 19.3854 19.6795 4.1394
1 17.9996 10.5289 14.936
1 9.17908 4.33052 16.9499
1 18.7675 12.8271 3.67423
1 25.251 2.80541 24.2596
1 9.25388 19.5306 23.4833
1 13.4093 19.2 16.6329
1 18.5261 15.9066 21.4856
1 26.6255 11.0683 15.7303
1 18.1045 1.49068 26.8227
1 11.4192 20.7626 15.616
1 15.2907 2.95549 24.5869
1 24.6243 19.7456 26.3523
1 1.10503 19.163 14.9506
1 13.172 19.1884 13.1795
1 24.039 7.84353 2.58311
1 22.9822 1.07721 21.5542
1 11.7576 2.08586 7.38059
1 25.2286 20.6161 15.4267
1 21.0663 23.6065 25.9382
1 21.1635 18.988 7.42747
1 6.00954 14.9008 18.5585
1 0.364127 19.7551 21.3693
1 0.626415 14.9839 13.611
1 1.08808 22.5365 21.7416
1 0.744135 17.2881 0.530589
1 17.2249 2.74772 5.57013
1 21.8092 22.6917 10.2396
1 15.017 21.879 24.1799
1 6.44596 25.511 1.02121
1 0.963956 16.5136 6.54072
1 16.3269 17.4483 6.43039
1 4.14283 10.8325 13.0296
1 2.48265 18.0939 16.6982
1 24.2574 12.1165 6.9198
1 8.44009 10.0751 8.64118
1 0.883532 23.5738 7.4148
1 10.4445 24.4542 10.6317
1 0.102979 12.6831 0.790181
1 3.74584 16.0632 4.30794
1 25.0803 21.15 10.3982
1 13.5035 3.9545 8.52827
1 8.41459 24.7508 20.478
1 9.58369 7.40102 5.54532
1 6.89238 11.8856 8.88597
1 15.2249 2.05412 5.33844
1 21.6774 21.1265 22.3252
1 16.3289 22.5984 10.7196
1 14.8668 7.6456 10.1999
1 20.329 8.51757 9.91776
1 10.0863 25.6276 12.7455
1 18.0268 24.1198 9.15933
1 17.4012 0.461398 20.5704
1 11.5587 6.19112 5.7441
1 21.1535 2.67948 4.24736
1 20.3338 0.00707964 24.513
1 12.9396 25.5675 6.80422
1 24.8575 22.8143 16.4656
1 26.2434 8.70412 9.68834
1 15.1242 17.6413 21.2951
1 3.3248 22.6073 4.60711
1 16.8968 11.5702 24.163
1 16.0035 4.5071 8.05673
1 19.9128 9.28981 20.9551
1 14.1398 14.2559 9.44675
1 21.342 20.0099 19.2538
1 16.3657 25.1605 1.856
1 25.4457 16.4122 21.7353
1 7.84902 12.639 14.2088
1 21.8393 2.10383 27.0983
1 3.37501 1.20577 3.70569
1 10.9781 26.7762 9.63324
1 14.3637 0.127245 19.4351
1 14.8088 7.63117 4.90549
1 23.4942 5.22016 6.85637
1 3.38185 19.3744 4.74323
1 7.85261 22.5644 19.0062
1 11.5646 3.74781 5.469
1 9.17406 12.6162 17.4967
1 10.8275 18.4796 11.7017
1 2.11866 0.102512 9.28699
1 9.13398 8.31626 13.1307
1 13.814 5.58955 11.0306
1 13.37 20.1508 4.68355
1 11.2641 0.637645 2.05697
1 11.9364 19.8919 25.1721
1 17.9517 7.7574 3.58399
1 13.2472 3.33549 16.554
1 12.1209 8.09771 8.29662
1 21.539 12.8983 18.3963
1 9.59463 4.34431 9.94826
1 11.2694 23.3225 5.45592
1 24.9122 18.748 18.618
1 16.9426 19.1605 21.2944
1 23.5283 10.3087 11.6281
1 25.8534 25.5523 0.381473
1 25.4138 11.565 12.6217
1 14.2024 6.38687 18.4594
1 23.6732 23.715 22.7034
1 0.869587 13.8973 7.78742
1 8.2131 21.4153 25.0425
1 22.1268 13.6039 7.18453
1 0.660753 4.54697 19.1892
1 0.0127476 5.69044 23.1424
1 9.50796 1.8096 14.2331
1 16.2507 17.2307 0.0371663
1 6.53521 11.0782 3.96076
1 0.29653 6.60065 8.3788
1 16.9114 17.3195 8.62672
1 13.8568 25.7068 17.1022
1 22.0775 11.1556 5.05901
1 26.083 1.92541 16.9436
1 21.5665 13.4387 11.0569
1 17.2417 10.1111 19.1103
1 2.33554 19.1907 18.7971
1 9.46677 17.947 18.3877
1 6.19068 9.01442 5.80258
1 16.3914 15.9389 16.9032
1 18.0709 5.07789 11.5509
1 18.5781 26.1887 2.7668
1 14.9909 10.3435 7.57325
1 15.1932 13.8373 13.1787
1 21.0655 25.7155 8.57792
1 20.8288 6.17267 8.91982
1 4.66533 17.824 13.4304
1 19.6586 17.8687 11.555
1 13.6382 0.637535 21.6941
1 13.3487 15.3795 14.2915
1 26.2917 25.1329 5.29692
1 11.1255 26.1714 17.8069
1 19.1337 15.0823 16.2346
1 0.783832 18.8148 2.54003
1 13.6713 12.2455 11.8549
1 16.9016 13.7742 25.2509
1 8.21787 23.312 13.8463
1 17.689 24.2078 15.7001
1 6.03822 14.6334 7.04503
1 19.4818 6.69317 13.628
1 25.7776 14.0434 6.82558
1 23.3966 3.05708 14.8629
1 26.8071 7.62004 26.5611
1 7.95037 16.4286 16.287
1 12.607 5.80135 13.0293
1 14.3829 13.7408 24.5042
1 23.1166 26.144 1.94704
1 4.26593 12.8905 4.24187
1 20.4699 16.3838 2.35768
1 3.44706 10.2469 10.5524
1 9.35887 11.9292 19.7239
1 20.3605 2.54246 20.8117
1 22.7789 15.9689 18.2437
1 5.43436 26.2873 18.5809
1 11.2671 3.57023 13.3633
1 8.94953 10.9783 12.9426
1 12.9912 13.5207 16.875
1 1.79423 16.1054 2.59433
1 5.46146 2.84932 4.26485
1 0.921274 20.9611 1.55651
1 6.1398 12.2465 12.6155
1 22.7363 15.88 6.58625
1 0.797044 14.4013 23.8584
1 19.3876 17.449 8.76662
1 12.6587 14.1844 7.62273
1 3.06861 20.7781 14.6744
1 10.8931 23.2108 7.82004
1 7.37708 6.19259 2.63184
1 25.1136 6.85361 14.7668
1 26.4557 8.07874 2.68495
1 21.8346 11.858 1.41254
1 14.6787 20.8007 20.1868
1 3.68654 6.1319 5.05858
1 21.2903 5.1222 20.3644
1 10.8007 20.2567 2.11306
1 7.78005 2.0643 12.1811
1 16.3412 15.914 12.083
1 23.1512 19.7679 24.307
1 1.0906 7.45951 4.48492
1 16.8328 13.2077 0.538565
1 18.8263 1.72 4.13652
1 18.7539 24.9634 5.0337
1 23.6229 6.99591 20.7908
1 13.8404 23.552 0.959984
1 1.25424 23.1974 3.03482
1 3.47342 4.4277 23.6205
1 11.471 8.96025 0.103821
1 16.4431 6.57339 6.932
1 9.06195 0.0926977 15.9287
1 3.09652 16.9867 21.924
1 22.8193 15.1537 3.56122
1 5.74728 26.7623 20.8779
1 8.1094 16.1382 24.1969
1 24.3128 26.3009 4.44339
1 20.2461 16.3162 6.3294
1 25.8082 2.86765 14.7733
1 8.35425 22.3645 6.87533
1 6.88778 2.88582 9.12672
1 3.98863 26.1201 10.713
1 26.5187 7.77416 6.52687
1 5.63959 19.6045 24.5087
1 21.2184 7.29171 2.77515
1 21.1332 8.87753 12.1377
1 26.6555 17.0599 17.2145
1 11.1072 5.99136 0.734085
1 13.9119 26.3986 13.3426
1 14.6211 26.6061 5.09285
1 24.5291 2.91415 3.34609
1 18.6138 22.0773 12.3274
1 17.7958 7.50122 0.523956
1 18.7728 21.2039 10.206
1 18.3861 14.3726 11.4384
1 11.0366 20.7039 8.83415
1 10.8147 14.4807 14.0722
1 14.7754 0.7833 16.4027
1 0.911286 23.3205 24.2384
1 9.69724 3.90727 22.6545
1 17.6234 20.5699 19.2923
1 3.04709 6.13001 12.6509
1 26.8886 21.4326 13.7217
1 17.2542 23.871 22.9456
1 11.3216 23.2375 16.9792
1 6.0592 20.2748 7.3224
1 22.9913 20.8196 8.67399
1 9.15027 21.2973 10.1789
1 23.4142 24.606 8.63862
1 23.4957 18.7341 6.17184
1 7.95337 16.0588 11.505
1 4.29098 5.80446 7.49755
1 22.3212 11.8446 24.3256
1 0.870157 12.4515 19.7944
1 9.27424 4.51113 12.3089
1 3.7705 8.87603 5.4833
1 1.96136 9.50625 3.27251
1 19.8895 4.77436 15.178
1 21.9993 4.3917 10.6476
1 20.1605 21.0623 6.43527
1 8.62605 13.2244 22.161
1 17.5427 4.49582 0.500872
1 3.07625 6.66914 26.6364
1 22.2008 11.7028 13.3249
1 8.27571 8.7059 1.14102
1 9.52717 3.94542 27.0305
1 12.9509 18.5981 2.92558
1 9.76808 19.5641 5.14313
1 20.5991 8.82319 14.6416
1 11.2265 12.0658 7.27525
1 5.24229 17.4784 23.5506
1 7.59082 8.9884 19.4188
1 14.597 10.3049 12.9123
1 18.292 0.445676 8.43643
1 16.258 25.5328 8.06061
1 10.918 26.8154 6.95152
1 23.413 9.3346 23.8543
1 17.0891 2.43826 10.4519
1 12.2856 1.25585 12.798
1 17.1905 15.8378 3.97407
1 11.3131 15.5289 2.53121
1 20.1107 22.8306 8.61272
1 23.9796 1.5083 8.66263
1 7.58279 19.6749 3.68104
1 8.42686 18.3021 0.970169
1 25.9284 5.46019 11.4685
1 15.8961 3.88399 2.41356
1 26.0039 10.5956 18.2046
1 4.71833 3.04798 27.0813
1 3.32153 1.15285 20.2486
1 9.70798 22.5752 11.9257
1 6.06889 22.8996 24.0164
1 3.36242 24.8693 14.1945
1 3.97895 10.5036 17.5621
1 25.8365 17.4558 26.1355
1 7.59698 0.497201 0.717152
1 4.26057 9.74546 8.49373
1 1.62534 5.89473 2.15347
1 22.0027 11.0206 15.6465
1 9.33632 9.3969 25.8793
1 17.5689 2.81793 8.0066
1 7.14393 3.32313 19.558
1 11.6078 4.83186 15.7159
1 10.2574 6.52393 12.1065
1 24.8437 6.09513 17.5312
1 20.4337 10.8109 3.38604
1 11.3627 13.3724 11.7674
1 16.5108 15.243 22.38
1 3.01569 4.26057 17.5159
1 12.2261 0.91219 15.3602
1 9.75671 15.6628 21.7463
1 0.183441 25.9719 22.6592
1 2.7743 8.48028 13.5861
1 8.90618 4.67133 20.0684
1 5.74505 17.0576 7.17503
1 17.8602 26.8045 24.2597
1 21.1828 0.361194 11.4247
1 1.81791 15.8997 20.0681
1 9.22687 2.48674 8.65757
1 6.02057 4.46621 13.0988
1 21.1015 4.82261 26.8677
1 21.2992 13.3995 4.69979
1 2.74611 13.6989 11.5795
1 24.8732 6.56878 5.01579
1 17.0597 21.3733 2.75281
1 4.66038 24.3372 21.3258
1 18.846 1.38756 22.1692
1 25.1876 23.5158 9.69325
1 2.13079 18.1968 26.2139
1 10.6361 18.7018 26.9017
1 1.43057 18.8379 8.1557
1 25.6719 25.6843 7.68978
1 8.48281 18.8775 10.4995
1 6.0001 2.50397 6.90546
1 13.4322 7.13361 20.7998
1 21.307 25.226 0.402369
1 2.59568 18.9214 12.549
1 10.6788 25.7696 15.1399
1 0.837204 9.26939 0.751217
1 8.24193 1.7624 18.3781
1 13.6383 0.933023 9.02928
1 14.5932 17.3344 10.1552
1 21.2525 24.6104 16.3574
1 24.9988 1.32177 5.55775
1 12.2399 4.89806 20.3522
1 19.0246 4.35433 3.28538
1 11.0208 12.2278 15.5019
1 22.2601 5.08337 15.9796
1 25.538 19.0838 3.01925
1 15.3096 20.7271 13.2781
1 19.2693 6.99112 16.8307
1 19.0381 15.9153 13.3739
1 15.7381 0.624761 7.69898
1 6.17195 19.338 26.8514
1 16.3242 25.0309 5.76725
1 22.6776 22.6973 7.20106
1 17.2343 2.98312 22.2894
1 25.4 3.91282 21.7393
1 0.737617 21.1726 8.24246
1 23.4083 10.7572 17.6212
1 19.1123 3.5874 25.6035
1 2.4307 11.0505 15.7743
1 17.0544 7.13611 13.3146
1 1.18779 10.5941 21.3356
1 1.52834 25.5617 12.0757
1 9.57512 26.9547 24.3874
1 0.34143 4.54547 7.33454
1 17.779 20.2547 6.89176
1 6.11697 25.8449 5.42403
1 5.13812 14.0436 11.524
1 19.0226 17.3444 16.4081
1 6.03823 12.1714 18.3345
1 2.65965 14.2058 15.8752
1 25.6727 17.8353 5.07788
1 5.61571 21.2228 5.09153
1 7.38725 20.9921 1.51815
1 16.2537 14.7269 5.98712
1 13.0246 9.6523 19.5695
1 17.488 5.45899 4.87682
1 16.5278 14.7656 9.61885
1 3.47791 8.73637 0.171701
1 13.9835 25.9189 23.2709
1 25.5466 26.0348 18.501
1 8.58527 15.3893 0.0255748
1 13.7639 4.41323 0.960168
1 14.2217 2.02783 11.2097
1 8.76551 19.9529 7.16043
1 26.8121 20.4993 6.17147
1 26.0069 23.9566 22.3041
1 9.07118 10.1547 22.4032
1 19.642 18.5686 14.0618
1 15.1819 9.24659 23.7507
1 18.4962 1.41889 17.5027
1 9.96604 0.852821 0.210152
1 7.23615 10.3528 11.3677
1 20.7013 0.459809 15.9188
1 1.65494 24.883 16.526
1 7.37927 13.8163 24.1553
1 1.05041 25.6453 2.94094
1 16.411 23.6235 13.264
1 8.6726 15.1932 2.20456
1 24.5608 11.3922 22.4482
1 24.6593 18.8963 10.1057
1 25.4033 8.51493 19.6268
1 14.7934 19.8285 10.8341
1 20.2787 10.8686 26.8971
1 5.37798 18.0917 4.86689
1 22.548 4.1696 18.2755
1 16.4491 6.67365 18.2532
1 11.0351 20.7852 13.2065
1 7.58229 25.5079 12.656
1 21.7493 8.25167 22.4605
1 6.39844 8.73445 8.37888
1 9.08482 24.7556 23.1703
1 6.3756 23.283 3.10412
1 26.1785 23.822 19.8129
1 0.682566 14.03 2.90639
1 5.67056 18.9382 20.9886
1 14.031 15.7264 2.93777
1 14.2177 1.79279 2.98741
1 8.20174 3.78406 2.14212
1 3.88192 24.0279 11.9282
1 13.0696 23.9505 3.38234
1 4.17539 0.960233 8.1315
1 24.8306 25.4328 14.7464
1 7.30516 0.33229 25.4878
1 5.51052 16.5971 11.4466
1 22.6652 7.54819 15.3575
1 6.49859 6.30137 8.73597
1 16.0232 12.5358 10.8846
1 4.47524 12.4252 9.90498
1 18.7375 24.4909 11.5815
1 15.8933 0.204946 11.7555
1 23.1048 3.17514 5.84077
1 13.695 14.3468 5.46357
1 11.7091 9.60155 9.97946
1 8.72899 13.4198 8.52781
1 27.1503 0.138976 24.6755
1 4.86404 4.38399 19.6716
1 24.5141 21.5935 12.642
1 4.84913 1.15724 13.9876
1 23.6975 2.25606 17.2518
1 15.6451 25.2899 10.7279
1 8.83415 5.52091 7.70973
1 24.698 9.17408 26.3492
1 0.782535 8.43532 11.6046
1 0.984213 22.7588 11.6684
1 22.2092 3.1832 8.55178
1 23.3785 18.6757 16.2875
1 24.3126 16.3343 16.557
1 12.263 12.1211 18.7454
1 6.59189 25.2483 23.0055
1 6.42369 21.8437 9.55997
1 13.6675 21.7748 22.1856
1 4.43345 12.3702 20.3174
1 23.0099 25.5109 18.256
1 11.0929 1.04979 20.7147
1 19.9617 10.0259 17.0242
1 12.0236 8.15896 13.9562
1 8.80676 22.8384 16.4982
1 19.7549 25.5617 14.8389
1 20.3157 22.4929 16.9461
1 12.9071 8.88585 24.6629
1 16.0277 25.086 26.4561
1 17.4033 4.76859 16.6525
1 20.8716 8.58897 18.6187
1 14.8163 5.33677 4.01088
1 23.6488 12.1459 20.1639
1 5.65389 26.0154 14.1631
1 10.3905 20.3415 18.9921
1 6.47577 23.4945 26.5644
1 9.47669 26.9276 19.399
1 9.32151 1.21298 22.3667
1 26.2242 4.68523 3.63115
1 3.76864 11.4578 22.3305
1 19.9686 3.77495 12.833
1 1.66003 6.35154 16.3795
1 0.165885 0.92812 4.60482
1 10.5351 9.21248 6.56683
1 23.9021 0.707242 19.3177
1 22.6352 14.8104 20.5633
1 25.0688 15.3559 9.01188
1 24.4116 26.5558 10.5225
1 2.16783 6.90137 10.0086
1 3.32065 9.92013 20.1782
1 10.3588 2.02158 17.1609
1 3.27579 19.165 21.1477
1 8.06225 6.46129 18.4386
1 4.74167 5.89859 21.8315
1 4.83576 23.4045 8.29655
1 6.40508 8.51856 26.6187
1 4.02803 1.10382 22.5553
1 24.2329 5.12919 19.9346
1 26.0432 3.03041 19.4749
1 3.27009 13.9444 23.1506
1 20.6341 2.39011 23.8112
1 4.61105 8.59847 16.474
1 6.81577 5.1491 22.9165
1 22.8602 3.23662 24.8213
1 23.4823 7.12146 10.1121
1 11.096 23.1123 2.08634
1 14.833 7.09873 0.516361
1 13.3899 11.0076 22.6582
1 5.27443 22.1764 0.942003
1 11.3858 12.7185 21.9347
1 11.4199 2.5852 26.2396
1 22.3211 1.42334 2.29682
1 23.2545 27.0172 16.3838
1 9.84791 22.0796 20.5646
1 19.4417 17.2966 19.8932
1 17.7398 20.1405 13.4949
1 6.96219 25.5825 9.91219
1 3.44828 7.29576 18.0067
1 7.29537 7.00822 24.4772
1 22.0911 8.68881 8.56082
1 26.9921 23.672 15.5499
1 17.516 4.51797 23.94
1 3.68373 23.0922 18.0294
1 11.4849 20.9526 22.8838
1 3.29724 16.3074 14.9477
1 26.7945 5.20382 15.358
1 1.74937 10.5558 5.4917
1 9.13103 2.4513 24.6269
1 19.2971 11.6623 19.0564
1 22.9483 23.7587 14.5718
1 18.4262 4.1724 20.5125
1 5.62927 8.51529 20.9845
1 2.57466 0.106767 14.5209
1 22.2902 25.2308 4.4327
1 19.5733 15.1423 4.26173
1 12.9942 21.2727 18.6067
1 7.29174 14.1491 16.5162
1 14.1256 13.0115 20.5866
1 1.10936 7.42694 21.4392
1 3.26422 4.66278 10.3133
1 26.7034 16.3263 10.7128
1 12.5606 1.2294 18.4068
1 15.4876 0.219207 1.26668
1 10.0824 7.14053 15.2487
1 18.1683 23.8706 19.7189
1 16.7063 24.751 17.649
1 14.1612 17.6394 14.6311
1 13.284 8.57984 11.6733
1 21.2042 1.86657 13.9821
1 15.7378 2.47317 19.7169
1 6.99205 8.68059 16.9312
1 18.5883 20.3753 17.0059
1 4.90205 19.4619 15.9643
1 11.9627 16.4362 22.7108
1 10.0101 12.701 5.00069
1 19.4931 6.41881 19.3899
1 18.0016 13.2839 17.8677
1 23.0222 5.71217 24.7682
1 12.1012 7.39674 22.9664
1 11.858 24.4081 24.6302
1 14.7747 17.5594 18.4921
1 9.07578 11.3496 1.249
1 0.807667 4.25389 10.5762
1 22.3886 20.8742 11.9469
1 10.7635 26.0852 4.41117
1 11.4852 9.51476 21.8526
1 6.89283 11.0296 20.8242
1 19.4353 5.72037 1.3499
1 15.9464 6.30184 23.8959
1 25.9535 12.8035 18.8091
1 22.9371 23.0859 2.61728
1 4.42172 16.4657 26.0017
1 0.657171 5.87721 13.1354
1 22.9851 18.4227 11.9423
1 12.9154 6.92088 26.3049
1 6.28338 1.13282 17.4079
1 12.6439 17.2669 0.535078
1 14.5719 24.6697 20.3235
1 26.1545 13.9834 11.8375
1 2.29242 3.4919 12.9589
1 8.56068 22.0938 4.32864
1 9.73208 10.2104 15.2643
1 10.8764 17.0174 13.9426
1 6.82727 16.9588 26.216
1 15.87 5.21502 26.5406
1 10.6866 14.0622 19.8573
1 2.48165 3.66528 20.5177
1 0.262513 1.78323 10.3604
1 6.6887 14.758 9.58674
1 16.4339 22.4745 5.09045
1 18.5889 6.48547 22.4632
1 6.70864 10.6064 25.1377
1 2.37609 24.2871 20.5783
1 13.1083 22.319 13.8378
1 22.4847 16.1123 13.6616
1 14.691 21.4222 15.9102
1 13.5932 24.3168 12.0104
1 12.8124 16.0795 16.9932
1 15.5777 3.36943 15.5343
1 7.84919 20.6431 13.2963
1 4.43399 16.3938 9.22398
1 20.1684 18.8262 24.0455
1 11.1053 17.9046 16.1077
1 9.46344 24.2598 3.77636
1 14.659 21.805 2.94195
1 1.21335 2.09587 0.687736
1 14.7699 3.02416 22.0831
1 3.83893 6.0654 15.1308
1 13.0384 14.2694 22.5845
1 7.53449 10.9519 16.1192
1 11.0445 16.1522 18.7021
1 4.28106 18.7276 9.22516
1 0.0908823 26.759 16.6117
1 25.3583 21.0896 20.3664
1 7.94727 6.62887 21.2832
1 4.03493 1.91131 17.8794
1 7.29881 25.8373 3.31452
1 13.4852 5.27077 23.1516
1 5.68339 2.90359 22.8758
1 8.36002 14.9716 13.8127
1 26.8553 26.2497 10.517
1 23.0428 0.544447 24.2621
1 20.3126 15.1035 18.4929
1 25.1965 13.8931 21.1864
1 16.2529 12.6346 22.2144
1 9.36407 20.724 16.9735
1 6.06749 19.3015 10.569
1 3.28095 26.1702 18.2614
1 18.6734 18.3993 26.3028
1 26.5635 5.64377 1.60459
1 25.5473 21.8156 0.675334
1 26.1038 3.05779 8.8207
1 16.7068 16.9087 14.5447
1 10.8492 5.73946 18.5262
1 26.4454 0.616555 20.1851
1 21.0699 20.9964 25.4891
1 7.16435 7.10773 14.8751
1 20.8866 23.9775 13.306
1 18.7343 22.2083 26.199
1 26.5096 23.9269 13.017
1 4.06946 23.0299 15.5552
1 23.2372 8.34494 18.12
1 18.6585 10.0679 12.8633
1 11.6641 22.1697 26.4664
1 17.0967 2.33492 13.9158
1 21.1909 1.57803 18.5448
1 0.792368 10.8069 12.7247
1 16.0775 22.7195 19.9442
1 25.2431 8.49753 12.3233
1 3.88333 3.20292 15.007
1 27.0421 26.6246 14.1283
1 8.1489 4.62374 14.5156
1 1.08431 3.54172 22.9266
1 1.28868 26.466 20.4943
1 20.5584 5.76205 4.66402
1 0.262751 7.06596 18.636
1 1.28466 9.62513 7.46166
1 5.3889 25.7768 7.9034
1 0.452105 12.0904 25.1632
1 1.66838 12.9944 4.91059
1 23.5274 22.5898 25.0379
1 26.6342 16.5083 23.9631
1 11.0922 11.2526 2.91219
1 16.4974 12.5163 4.54188
1 17.1432 18.365 11.6177
1 13.4676 25.5457 9.29932
1 7.00293 25.97 16.2611
1 12.5493 25.9527 0.418866
1 16.3892 26.2506 22.3733
1 5.51668 25.671 25.3479
1 8.26947 0.18049 8.60113
1 15.257 11.9674 18.4825
1 7.07623 16.7049 4.1722
1 8.85057 19.1543 14.9758
1 12.591 24.2935 15.2377
1 18.2168 7.73982 8.16426
1 10.1907 0.675831 11.6511
1 14.0505 3.95888 5.89487
1 27.0671 5.28658 25.5957
1 6.64453 20.5948 19.0991
1 22.7094 4.67952 12.9307
1 6.96488 4.79458 10.6215
1 21.9869 20.5088 4.25095
1 2.61085 14.897 6.02086
1 17.7652 13.9883 7.85457
1 16.0393 9.25222 3.73883
1 1.84097 4.50634 26.9387
1 6.07377 23.347 6.04839
1 0.725234 2.28594 25.0661
1 19.1185 22.5085 4.37202
1 8.76974 0.326593 4.37877
1 1.46667 3.17361 16.0301
1 6.36817 2.71704 25.3687
1 23.8935 23.2261 18.5725
1 0.0978486 18.6834 12.3802
1 23.0873 19.051 1.78106
1 10.3778 8.50143 17.3187
1 10.5511 17.4666 24.4806
1 15.2933 25.1846 14.9689
1 6.06907 8.59865 2.85217
1 1.93254 26.4707 0.893144
1 14.0123 18.5695 26.672
1 14.1651 23.8523 25.6564
1 15.9601 0.433786 25.6192
1 14.3237 4.00512 18.8469
1 6.25949 2.27182 1.99399
1 14.3192 18.8231 7.83371
1 10.8825 13.5196 24.4576
1 13.3072 21.6159 7.36348
1 15.9314 19.6746 4.90306
1 1.68223 25.7402 7.09877
1 20.6753 24.7692 23.8983
1 5.27169 8.70491 13.9675
1 11.1545 21.2499 4.37255
1 21.2021 0.0898365 5.26771
1 20.7248 24.1957 6.35956
1 21.2823 26.2757 19.8271
1 15.5987 3.91571 11.8769
1 12.1237 3.1185 2.83914
1 9.22656 11.5087 24.8115
1 6.32749 23.4549 16.352
1 20.2612 12.9038 13.1289
1 21.3663 5.92999 22.8994
1 25.027 4.74217 26.6181
1 6.82434 14.2066 20.9876
1 7.0908 19.3878 16.9738
1 24.9596 26.6974 25.7273
1 18.9316 27.1163 6.15156
1 9.8378 9.45032 19.5523
1 18.9095 9.48995 1.75831
1 16.8321 20.6995 25.7051
1 22.8933 3.56919 21.9656
1 21.3839 14.525 23.2648
1 5.50544 20.0656 12.9955
1 6.92875 1.96046 15.1804
1 21.7865 6.78857 6.55283
1 23.0208 7.26092 12.6382
1 5.59035 6.71837 12.3258
1 23.4698 15.5931 23.423
1 13.4726 6.90826 15.9344
1 4.67833 21.6896 21.3307
1 19.1695 21.2605 23.3722
1 1.99379 11.1997 0.328876
1 2.7772 1.28145 12.0168
1 5.97549 1.00205 10.3773
1 25.109 15.4367 5.22586
1 13.0309 4.26436 25.4014
1 12.6244 19.2809 10.2639
1 15.1042 10.3035 16.8922
1 15.7315 17.6994 3.08734
1 25.9491 26.7106 2.6197
1 26.3646 9.4624 21.6897
1 11.9461 3.17677 22.1028
1 7.10454 17.3421 14.2093
1 9.35756 7.66629 23.0803
1 18.1777 22.898 1.31007
1 2.07045 0.911681 16.7027
1 7.56839 4.96491 25.972
1 20.9963 14.24 0.233396
1 1.80386 17.3378 10.2095
1 0.250959 15.0968 16.257
1 22.8485 8.49033 4.88469
1 24.4406 11.9582 4.51197
1 1.59728 8.80398 15.7332
1 13.9384 15.4313 26.2448
1 13.2297 20.5582 0.866256
1 17.482 3.47578 18.4266
1 23.0974 22.5124 20.8719
1 26.3443 10.1932 4.53133
1 4.35003 4.96706 1.53589
1 17.5527 18.0721 18.5993
1 21.1846 14.5117 14.7351
1 2.72122 20.9708 23.0141
1 11.7183 5.87515 9.43001
1 25.1073 15.4986 14.2799
1 8.56441 17.6215 20.892
1 3.99214 14.7226 21.103
1 4.21073 18.7889 1.38223
1 13.2658 10.8212 6.13258
1 10.2118 15.0786 16.5926
1 9.45223 6.98754 26.1235
1 17.3198 18.7051 24.0087
1 20.9131 18.9228 21.3901
1 25.2687 19.8637 22.739
1 24.2676 12.9327 14.2427
1 23.0267 18.0174 22.2704
1 24.5007 3.35001 12.3312
1 11.5338 16.5702 10.0578
1 19.7762 16.0688 23.7043
1 12.8087 11.9249 24.8342
1 3.67613 21.1821 24.9642
1 14.5022 19.2504 24.1659
1 21.0018 19.5025 10.2435
1 13.0042 18.8167 21.5988
1 22.054 4.39 2.23946
1 11.1122 24.3697 20.6644
1 1.43527 10.3877 23.7981
1 10.7599 12.7699 27.0005
1 18.6846 12.093 21.2188
1 9.55854 2.61636 3.79463
1 3.13666 21.6869 12.4301
1 19.2483 8.42863 23.6417
1 18.8759 13.7336 1.47572
1 16.2116 19.8249 0.794835
1 6.80765 17.1519 18.8222
1 10.5338 25.494 26.2218
1 19.4437 11.2248 23.4943
1 12.2051 23.2773 9.79474
1 12.9096 8.97798 16.8519
1 20.693 21.209 13.5981
1 25.6111 8.35213 23.7339
1 3.88824 11.6366 6.777
1 21.8005 25.0745 11.308
1 16.5424 16.3202 24.7254
1 20.1946 19.9135 0.586434
1 25.3488 13.1488 24.0924
1 25.371 11.3026 26.2936
1 15.5329 11.124 1.49225
1 21.1971 23.7062 20.4001
1 3.60913 23.3394 25.1407
1 22.2883 25.7571 22.3194
1 23.3845 20.6469 18.2711
1 16.806 21.4675 22.4712
1 24.1775 9.9833 9.13557
1 21.0521 10.5479 7.32816
1 17.086 1.73609 1.95485
1 23.8812 21.0894 5.68357
1 12.2337 18.448 19.3225
1 3.59058 15.0782 18.1088
1 6.36875 21.0621 22.6778
1 14.1949 16.8967 23.5838
1 15.0946 21.2051 8.68442
1 24.0503 24.118 11.9332
1 26.815 22.602 4.74112
1 0.395868 21.2456 18.9213
1 2.67791 20.2659 27.0778
1 15.3667 13.8569 16.7305
1 17.5338 26.3184 13.3767
1 1.39358 2.2934 3.15133
1 13.0379 24.0106 22.1294
1 19.0144 16.0357 26.1754
1 17.2453 15.2831 19.1446
1 23.7425 13.437 25.9782
1 13.4153 12.1642 2.19737
1 0.227113 1.76212 13.0055
1 8.70431 23.6539 9.10354
1 22.5453 16.4896 10.6762
1 20.9581 17.9521 17.6942
1 2.8607 22.4267 6.94632
1 25.898 22.4026 25.6578
1 21.9801 18.9411 14.3042
1 15.0912 15.0584 20.1969
1000
Atoms. Timestep: 8010
1 1.25494 4.78886 4.58827
1 25.1564 5.76126 8.74863
1 5.71602 23.9476 18.8846
1 11.1001 8.95238 2.61278
1 13.4075 11.6013 9.38799
1 26.792 0.740929 7.394
1 6.75446 16.3391 22.1109
1 13.2051 26.984 25.3987
1 25.2251 17.3306 12.5495
1 3.04459 7.85278 7.74419
1 5.34752 16.909 16.3095
1 3.71823 0.19911 24.6976
1 5.05944 14.3523 24.8136
1 23.4888 10.0808 1.48567
1 6.63147 4.89409 6.44871
1 20.3812 0.317887 27.1399
1 0.239858 24.0508 9.58688
1 2.61904 25.0997 23.2102
1 5.42559 5.19777 3.82907
1 12.2503 19.0059 7.00277
1 16.7123 22.6127 7.60481
1 3.69129 0.944597 1.26253
1 3.59274 20.1975 7.03228
1 13.2188 1.65661 0.406916
1 11.3402 10.9109 12.3871
1 1.37499 18.4143 23.6612
1 3.29474 2.44285 25.3084
1 11.2904 17.7201 4.72434
1 8.9181 3.29581 6.23289
1 18.7239 2.57856 15.5854
1 5.5337 15.453 2.39853
1 23.2393 26.8821 7.15892
1 22.3667 21.5918 15.8546
1 26.6889 8.76011 14.3858
1 3.20024 3.53266 7.73605
1 16.5881 9.07268 11.9737
1 11.7964 1.19507 24.0017
1 4.08066 25.1382 4.19002
1 7.48053 0.608795 6.29639
1 3.59445 9.56091 24.9234
1 1.26941 9.57323 18.2792
1 20.2805 13.1877 25.1468
1 23.1438 7.13556 26.7807
1 9.13716 17.6699 3.02958
1 23.8858 14.5675 10.8644
1 0.757989 8.33911 24.3583
1 12.4031 5.74096 3.30792
1 15.5932 7.85691 21.7665
1 3.15423 3.41738 5.22
1 23.4826 13.8829 1.32683
1 12.6557 24.2153 18.8777
1 5.08992 8.10619 23.5219
1 24.6747 9.53321 6.28453
1 18.9875 11.9246 11.1164
1 9.148 23.7151 27.0414
1 10.9034 15.6609 26.0837
1 23.3923 1.40091 11.1326
1 12.6466 10.3443 14.6127
1 17.983 18.9398 2.29877
1 0.802614 13.0938 10.447
1 3.50153 11.4183 2.30778
1 9.76127 7.00001 2.80851
1 14.6972 8.12957 7.98015
1 21.755 11.1264 21.7858
1 19.6962 23.3568 22.0894
1 17.2635 22.0344 15.4365
1 17.8126 9.76992 9.89638
1 16.1653 6.93211 15.8673
1 23.7893 5.63162 1.58391
1 9.39511 16.8609 6.6062
1 20.4139 21.6679 2.41449
1 5.85925 10.6694 22.847
1 21.4226 8.7353 0.717556
1 20.1172 14.2275 21.0092
1 22.6506 21.0458 0.810031
1 -0.041295 17.691 19.8512
1 7.11449 1.84557 21.6122
1 14.7807 5.28797 14.2954
1 25.1361 21.3239 3.52758
1 23.7825 23.8143 0.470041
1 15.4118 15.0539 0.878728
1 23.14 12.3993 9.45818
1 20.1518 24.3516 2.37035
1 25.8602 13.423 16.5526
1 20.0741 14.6332 8.07258
1 9.78532 14.8064 10.4128
1 16.895 10.714 5.72585
1 3.30663 7.17078 20.2501
1 7.2455 7.08306 5.06389
1 8.29859 20.1267 21.1901
1 13.0002 15.4525 11.3682
1 3.6051 13.9764 8.14896
1 15.2756 9.1098 26.6902
1 17.1836 19.5132 9.29432
1 3.76529 7.87617 2.56466
1 5.6248 12.1227 26.6294
1 8.56262 14.5535 6.30589
1 6.13601 12.3633 6.21417
1 17.8082 10.7979 26.6018
1 3.31961 12.162 25.5393
1 18.2057 16.3867 1.45894
1 11.1708 14.9856 4.93414
1 4.20645 21.0069 18.6847
1 19.9631 8.66054 4.62519
1 14.183 12.3639 4.30058
1 15.6612 11.6615 14.9826
1 12.5671 8.85727 4.61842
1 19.8804 22.012 19.1993
1 24.1234 15.96 25.9406
1 10.314 11.7521 9.70525
1 2.30337 12.5638 13.625
1 5.21817 10.5177 1.11493
1 0.965057 10.5885 9.84748
1 20.2824 12.2994 8.79833
1 13.3081 26.2991 3.01191
1 18.9486 9.68628 6.72128
1 25.1873 1.00452 22.4556
1 2.25617 16.2418 12.3355
1 4.33759 25.3278 1.64369
1 11.563 16.5724 7.70649
1 25.5548 13.9742 3.40784
1 7.75223 17.8716 8.33086
1 2.24042 26.458 4.84505
1 23.7876 16.4801 1.21292
1 6.00155 4.49954 15.8501
1 3.52108 20.8017 2.8606
1 2.98184 23.228 0.673625
1 16.2399 18.8909 16.2661
1 22.0292 17.7769 4.25675
1 5.74165 5.88499 17.7276
1 26.0084 1.65104 1.55612
1 26.5727 20.1199 24.7485
1 14.9896 10.2654 20.8106
1 0.6344 14.3578 21.3142
1 7.81613 13.2349 26.5871
1 5.90888 13.1676 2.15784
1 26.1126 10.8668 1.97549
1 3.66408 16.1708 1.08828
1 18.553 17.7483 5.37189
1 1.11429 23.8225 18.6901
1 17.2981 8.97071 16.6562
1 23.3271 17.5393 8.60122
1 22.8975 13.5676 16.3431
1 18.7575 1.48866 12.0527
1 17.2417 8.42408 25.2046
1 20.7895 0.888005 9.03583
1 20.3069 15.3421 10.4156
1 0.281716 20.5081 10.5893
1 22.1938 17.4383 25.0842
1 13.6792 23.2665 5.89808
1 6.33268 23.6818 11.5096
1 23.2311 17.5166 19.8616
1 10.7997 5.52263 24.2764
1 14.8346 23.0337 17.8831
1 13.411 10.6975 27.0002
1 4.91075 2.90165 11.6522
1 24.7677 6.05789 22.9612
1 9.64563 7.86425 9.90278
1 16.8139 27.0617 17.9036