1000
Atoms. Timestep: 8000
1 24.9266 6.69353 6.9869
1 21.8716 1.95886 6.45856
1 0.401893 23.9949 21.7819
1 10.6694 7.31724 24.8014
1 18.2525 10.3836 8.53317
1 26.8052 4.09649 8.85298
1 9.96833 14.7564 23.614
1 17.2565 27.0179 26.3525
1 23.1398 19.5114 12.7391
1 26.5008 9.33494 9.34724
1 4.29941 19.2748 19.3856
1 4.4794 24.4148 23.9895
1 1.2279 13.453 3.30705
1 22.9014 9.20794 3.23318
1 5.51357 5.15852 4.6411
1 22.947 0.941585 2.18115
1 24.5279 22.7285 10.4223
1 2.92823 25.2403 22.2285
1 8.64182 5.1016 1.5061
1 9.16801 18.4267 2.91405
1 18.0322 26.3155 9.0873
1 5.34949 26.9059 0.767035
1 1.00646 19.3543 8.88785
1 17.5918 0.681561 23.935
1 11.415 12.2631 13.0142
1 4.14603 14.1512 22.0772
1 4.03235 26.1655 25.9673
1 13.6261 13.813 0.88268
1 7.2774 5.86065 6.43022
1 16.7432 25.5843 14.9313
1 8.1847 16.8984 1.2097
1 23.3142 26.5247 4.11176
1 20.0496 18.9718 17.1632
1 25.7206 8.10819 11.3866
1 2.64575 2.56225 5.4643
1 15.7784 12.0303 11.5472
1 14.6404 1.74098 24.5229
1 1.87391 26.3465 7.2763
1 6.08797 0.592908 4.87892
1 1.30034 10.1823 26.6775
1 27.0907 7.49947 18.2941
1 19.9062 15.2408 25.3486
1 19.6685 9.27885 26.6159
1 9.81852 14.7723 5.31044
1 22.9996 16.1473 16.242
1 0.856884 7.54312 22.4732
1 10.9148 10.5869 1.79299
1 14.3949 5.4122 19.0309
1 0.083084 2.74346 1.86806
1 23.2463 13.7779 0.675818
1 10.4071 0.116956 15.9514
1 6.01357 7.80424 23.4581
1 25.4247 14.0852 9.13826
1 21.8731 10.9413 13.0297
1 9.23541 23.3448 25.6122
1 11.4704 14.756 0.131312
1 1.8749 1.83768 11.8845
1 8.17776 7.33156 15.0207
1 19.0677 17.7562 3.77524
1 0.179555 12.5885 7.27339
1 3.51041 11.318 1.88401
1 10.3541 7.34824 4.28532
1 17.0219 6.48037 9.7704
1 21.743 12.7165 22.7054
1 22.6661 23.2791 17.2303
1 18.6693 18.2149 19.03
1 17.6547 6.91763 12.8885
1 20.0692 7.87764 17.7113
1 26.4382 3.59116 26.921
1 2.73904 18.5366 10.5003
1 17.5788 23.8493 1.40597
1 2.68057 9.24787 22.9939
1 23.0966 11.5234 26.7678
1 22.3502 13.5135 20.2566
1 21.7087 22.5008 4.22293
1 2.96739 17.7189 20.9824
1 8.05927 5.5591 22.4673
1 21.0716 10.8169 10.2928
1 24.5215 20.7773 25.7924
1 25.5657 23.7714 0.337112
1 14.7088 17.3415 24.986
1 26.4763 11.909 10.194
1 20.172 24.4231 1.81954
1 22.1995 10.8081 15.8035
1 20.724 13.5458 7.41425
1 8.37441 14.527 10.8977
1 16.0587 8.53494 4.40199
1 2.34583 6.72576 20.6295
1 6.9039 9.17157 5.72194
1 5.48775 14.6211 20.0936
1 11.9809 14.3905 10.0691
1 6.73326 12.923 6.15716
1 17.2745 3.73599 26.4385
1 15.1534 24.0619 6.54898
1 5.42718 9.78354 1.67274
1 6.14883 12.2291 26.2975
1 9.9737 15.7769 9.01487
1 8.22585 10.8569 8.66814
1 16.5951 10.6697 0.686218
1 25.0896 9.62023 24.083
1 13.9979 14.9598 3.16712
1 8.17827 15.5866 3.71946
1 5.30658 24.3591 17.8689
1 21.9116 6.17989 5.8019
1 15.5826 12.1491 4.51005
1 12.6054 12.4776 15.7185
1 13.6023 6.11376 7.3638
1 17.5506 21.3183 19.1448
1 26.435 14.999 23.2482
1 14.4062 11.4571 9.41245
1 3.14776 11.0005 15.62
1 4.53474 8.13741 27.0688
1 1.92213 12.2184 9.95974
1 22.5276 13.0099 9.42983
1 17.8624 4.51399 5.13455
1 18.7883 10.3182 4.49041
1 1.25601 26.9478 22.672
1 4.46528 17.0546 11.6215
1 4.51268 25.2419 4.41357
1 8.18784 17.3428 9.57938
1 25.1042 14.5711 2.23651
1 5.74538 23.7772 10.5434
1 1.50341 26.9709 1.76414
1 26.7477 13.4429 0.727104
1 3.63113 2.39025 17.466
1 0.926893 19.1777 2.93923
1 1.98847 21.5254 0.141864
1 18.4772 13.7794 14.1351
1 24.8724 16.8555 1.25366
1 3.32725 1.49848 22.6066
1 25.5503 24.8521 5.52298
1 24.6808 22.1086 23.8182
1 15.0258 7.84694 22.6641
1 26.3647 9.43231 21.9367
1 9.08114 14.3573 1.31254
1 2.08088 13.6241 26.7845
1 1.11582 6.82708 0.339812
1 6.42483 18.6565 26.9662
1 17.7289 15.8047 4.03225
1 24.5089 19.4446 14.895
1 16.7889 5.45856 17.8615
1 21.8449 17.2489 8.12041
1 23.2084 12.1192 18.2453
1 18.5306 4.79741 10.8931
1 19.3879 4.1031 25.2261
1 21.7492 1.66678 9.47324
1 17.543 11.66 13.548
1 23.6739 20.0784 5.60617
1 24.2664 15.4163 26.2338
1 15.9616 20.1224 4.48393
1 5.94561 22.3177 16.4977
1 26.6347 18.874 22.4985
1 10.9211 5.31744 23.6267
1 13.7636 23.2608 15.9744
1 13.6619 10.2132 25.7381
1 3.24682 2.95623 7.85916
1 23.2161 11.3609 24.1403
1 9.63373 8.87241 8.76932
1 16.9481 1.34436 18.181
1 2.55781 8.03515 25.3397
1 4.23505 13.8285 14.7067
1 23.3915 4.01221 1.56304
1 6.2003 6.6388 2.80748
1 1.7078 25.706 26.8066
1 19.0448 7.72798 8.95382
1 20.2537 3.19324 8.05516
1 6.63106 8.37757 11.1644
1 8.90725 12.1253 2.32822
1 24.7495 20.4086 11.0545
1 9.26136 19.6416 24.9849
1 2.753 20.5164 2.23111
1 10.3701 23.0908 23.4422
1 14.9027 18.1492 5.86169
1 1.70669 21.4457 5.10793
1 16.881 25.2184 22.3595
1 19.85 19.5427 26.1468
1 14.9859 8.37513 19.1365
1 7.34585 13.3124 3.81316
1 18.9298 17.4134 7.80879
1 13.8005 11.0125 13.6877
1 6.84328 6.62225 17.0874
1 20.4858 10.9684 2.93987
1 24.8591 25.6896 26.1671
1 12.8174 20.595 21.7147
1 14.6308 15.3565 18.4194
1 17.1011 16.6508 24.667
1 1.19598 14.936 13.6913
1 22.9466 26.5998 0.349239
1 9.29141 18.7988 11.3532
1 13.2372 23.3142 24.6393
1 22.9327 17.509 26.0208
1 0.621165 18.071 12.1265
1 15.6472 17.5419 13.5926
1 22.7436 6.81866 0.891585
1 23.0661 2.19261 18.7708
1 11.7667 2.01603 0.882685
1 23.1835 16.5762 13.7206
1 22.659 24.5727 1.78584
1 21.8934 21.6206 6.43134
1 1.99129 14.2906 16.3491
1 25.4444 17.2811 23.7171
1 3.47 13.8897 12.4196
1 0.947042 20.4449 23.5574
1 3.93351 17.2523 4.36286
1 14.8283 0.801275 7.19395
1 22.3094 25.7568 11.208
1 15.7835 23.4078 24.1317
1 6.90445 23.08 1.90414
1 26.2913 17.8231 8.7313
1 16.2714 15.9128 5.88875
1 6.3495 11.1412 12.8722
1 4.37436 20.3547 16.0325
1 22.4827 11.5021 4.39996
1 10.0022 11.5893 4.6271
1 26.8959 24.8067 7.96159
1 13.9742 19.7251 9.06131
1 2.05517 15.1824 1.82902
1 7.07462 16.0888 6.69229
1 23.5412 19.3939 9.02998
1 11.8445 2.68834 8.51567
1 9.92551 25.3698 22.0088
1 11.3325 9.52368 4.89371
1 12.0581 9.63095 10.4491
1 13.1354 1.05229 5.41856
1 22.4581 23.4296 24.1472
1 16.1746 22.2736 10.2838
1 15.9356 5.68827 7.67405
1 20.5958 8.53006 15.1018
1 14.2019 24.1134 9.43149
1 19.6982 21.0058 7.05963
1 12.5422 26.6997 17.1248
1 8.8809 7.91538 6.45168
1 19.6538 25.8173 6.02396
1 24.2654 2.12444 26.9107
1 11.0125 23.4394 7.6843
1 24.7219 24.293 14.2037
1 24.8342 6.45966 4.38554
1 15.4625 20.4968 20.3652
1 4.6743 23.2684 2.95417
1 17.8469 14.3431 23.9165
1 22.1528 8.25255 8.55592
1 17.9453 8.04667 20.7707
1 9.81238 17.6276 13.6491
1 19.4289 22.7095 21.9209
1 14.5065 26.5036 2.85301
1 2.62439 15.5115 19.7687
1 7.59183 13.1787 16.4986
1 21.0776 4.27302 0.665752
1 0.899544 0.551408 25.0901
1 12.2926 26.1254 11.9533
1 12.3356 2.74812 16.6985
1 17.0527 6.6614 5.81444
1 23.2058 4.61272 4.021
1 1.57513 16.9573 3.55063
1 11.8894 23.8237 19.699
1 9.85869 5.23959 5.85096
1 12.508 10.5865 19.4846
1 5.34364 19.6785 10.6358
1 5.43102 3.70993 8.79348
1 12.3143 14.5182 12.4685
1 14.8921 4.50125 10.2579
1 11.0886 16.1668 6.85525
1 9.58048 1.56172 1.98919
1 11.0581 20.581 23.7359
1 20.0666 8.77213 1.83559
1 11.6404 5.26685 17.8036
1 12.9255 5.94983 9.8357
1 19.4956 11.287 16.0064
1 11.0336 4.30134 10.2842
1 15.3145 22.5903 4.58727
1 1.5472 19.6522 18.8653
1 14.8581 19.4381 22.7203
1 24.0654 11.0982 9.89655
1 0.494528 23.5164 26.1825
1 26.6894 15.2776 11.1119
1 12.0449 9.42496 14.1492
1 22.003 22.3429 21.844
1 3.62561 15.0325 7.54883
1 9.08923 17.3277 24.0244
1 20.2259 13.555 11.0095
1 3.19148 6.15703 16.8629
1 24.1289 6.59108 18.1357
1 10.523 1.15043 13.8598
1 16.3959 14.6105 2.26447
1 5.52944 8.73275 3.71952
1 26.1201 4.48979 6.39653
1 17.1272 18.2068 9.54231
1 11.8625 22.7107 13.6655
1 20.1586 13.3368 2.41702
1 26.8072 2.9706 18.669
1 23.5137 15.426 10.1666
1 17.1131 14.8161 21.574
1 0.221856 18.2908 16.1939
1 11.6896 17.9964 18.88
1 5.99934 10.0749 9.51588
1 18.5351 13.962 19.7651
1 19.1717 8.6092 11.5676
1 16.3578 0.452864 3.98753
1 15.6699 9.96016 7.96979
1 14.6644 14.4999 15.4103
1 22.1982 1.09045 12.148
1 23.8692 3.13953 8.39342
1 6.92971 18.0958 12.2949
1 15.6678 19.905 10.9618
1 15.5235 0.423818 22.571
1 13.666 15.4781 8.7047
1 2.24359 24.6596 5.05617
1 11.9567 24.3809 17.302
1 20.6325 13.3653 15.3797
1 4.02099 21.3846 4.21932
1 15.8902 15.4911 12.2976
1 16.0313 11.1576 25.1576
1 7.41249 25.2138 18.6198
1 21.4101 21.1608 17.643
1 7.36635 18.7254 7.81305
1 21.4877 7.87583 10.8948
1 1.97395 14.5616 9.13029
1 24.594 5.10823 14.3896
1 26.042 7.02504 25.9686
1 6.50511 18.1527 15.0016
1 13.097 3.83824 12.4292
1 13.6462 17.0783 22.3119
1 26.806 21.4056 2.94933
1 4.97185 13.6488 2.85381
1 19.5144 18.3677 1.14701
1 1.78015 9.91629 8.99304
1 8.526 11.8655 25.1554
1 21.83 3.0799 21.6743
1 0.368558 15.2476 21.057
1 4.11886 26.6819 20.3904
1 9.84628 4.69122 15.4332
1 10.155 11.1681 11.2135
1 14.5544 13.7066 13.0621
1 5.3608 15.2928 5.0461
1 2.93604 5.27575 1.5485
1 6.22511 18.6217 24.4706
1 6.21837 15.6492 14.5959
1 23.0245 17.9287 4.71062
1 25.8003 12.475 24.3687
1 17.4646 15.3659 7.88845
1 13.1189 17.6562 7.96587
1 1.86911 23.2939 17.0975
1 13.182 21.9013 7.76143
1 7.06035 2.979 5.24406
1 26.9683 11.5021 12.6591
1 26.559 6.47933 2.14626
1 24.7332 14.4654 4.7851
1 14.9749 22.5739 18.3382
1 8.59294 7.30826 2.56086
1 22.72 4.82989 23.4295
1 12.0884 17.5569 0.667149
1 7.67751 0.581491 8.38844
1 12.2263 17.1982 12.8763
1 22.175 19.9996 25.4124
1 3.19365 8.16595 3.60491
1 18.1036 14.2291 0.497051
1 15.0655 3.0131 2.46373
1 17.3156 0.348156 7.16759
1 21.5449 8.43224 20.9102
1 14.2267 23.1555 1.20812
1 2.83832 23.6675 1.18456
1 26.559 5.95726 23.7067
1 10.6091 8.98067 22.7098
1 20.7249 9.17844 5.62829
1 8.21727 26.0076 16.0876
1 5.4648 12.7353 23.628
1 21.2873 14.8176 5.48603
1 6.63953 26.5002 20.5298
1 5.84953 16.0947 0.219739
1 24.9074 26.6088 7.30627
1 20.8392 17.2748 5.62647
1 25.4987 3.14426 13.1242
1 9.04558 21.7455 7.62807
1 7.46803 2.98302 7.71992
1 3.4668 25.5958 10.152
1 3.24796 6.09139 5.22318
1 8.59215 19.3082 19.6354
1 18.0967 6.29676 26.9483
1 23.3181 9.46867 11.6902
1 1.28386 17.174 14.2914
1 10.4425 6.63877 0.0938049
1 14.1889 25.0981 14.2053
1 13.1766 3.6793 4.76251
1 19.3444 1.01623 4.81697
1 18.555 22.5986 10.0997
1 12.5185 3.81219 2.18247
1 20.0005 20.7281 9.45771
1 18.2395 14.9963 11.9571
1 12.765 19.8547 6.11937
1 10.0044 10.6218 14.7997
1 16.4788 3.9967 15.0323
1 26.6586 26.3167 20.7177
1 8.05746 4.9457 26.2681
1 14.3243 25.3664 19.1091
1 3.37006 8.41938 10.4996
1 27.0187 20.3133 11.8007
1 14.8752 23.8061 21.0934
1 9.64381 22.829 14.7498
1 3.08234 21.9525 8.75525
1 22.31 21.5836 9.20405
1 6.67217 25.2764 14.034
1 19.4382 0.841475 10.321
1 25.5328 19.4637 7.08452
1 5.29289 13.4078 10.7723
1 27.0807 7.4584 7.85075
1 20.6976 12.2403 26.2092
1 25.5447 14.7891 15.1886
1 9.63667 6.14447 11.5654
1 1.62599 8.08539 6.27166
1 26.667 10.2641 3.40052
1 22.7175 6.29902 13.0006
1 22.5562 3.54086 11.2056
1 23.1625 20.4183 1.96958
1 8.25587 9.27317 22.8615
1 18.3303 2.97745 23.2902
1 4.5355 6.1805 24.6407
1 26.0364 13.7846 12.911
1 9.46219 8.83264 0.827789
1 11.181 2.5635 25.8252
1 12.6643 20.5954 3.91925
1 5.6872 22.1229 8.49055
1 17.0652 14.3643 16.0034
1 11.34 17.5544 10.5163
1 8.31925 15.0746 21.7244
1 4.29509 9.50932 19.1422
1 13.284 6.49985 12.2926
1 18.0535 2.72887 9.64157
1 16.5945 2.30728 11.7593
1 10.8775 24.8974 9.70813
1 18.4743 10.3538 23.8346
1 16.4357 1.40836 14.4816
1 12.6254 2.1357 14.338
1 12.6859 14.0505 6.7999
1 14.6631 14.1654 5.38423
1 18.0692 22.6694 6.91079
1 21.7051 24.2058 8.86736
1 5.32849 19.1089 3.70878
1 9.72786 16.8455 26.3715
1 25.1839 4.08099 10.7043
1 12.7353 7.0598 3.16425
1 1.31018 9.14362 16.3374
1 6.21428 2.0819 0.417345
1 4.14829 3.41173 20.2541
1 8.8689 24.6205 13.3499
1 7.48329 21.0611 24.4503
1 3.1244 24.964 18.8455
1 3.72064 9.04276 14.2373
1 26.6161 15.0903 25.9543
1 7.75213 26.297 3.92109
1 8.16198 11.1025 6.16104
1 2.68624 2.27016 1.7329
1 25.4857 9.77934 13.5839
1 3.38308 11.7136 26.6278
1 16.3871 3.36018 7.72073
1 7.02081 2.23906 15.7083
1 8.18367 4.36079 17.202
1 9.08825 8.98026 11.5674
1 23.2974 3.40433 15.7723
1 18.968 11.5914 0.598856
1 12.5967 14.6067 17.2188
1 14.7019 20.0806 25.704
1 26.9942 5.36681 16.4651
1 12.2726 5.06112 14.8061
1 8.64821 14.3822 25.8051
1 24.7876 25.5937 22.5133
1 2.84265 6.66301 13.0795
1 9.54057 4.8017 19.3403
1 5.46037 20.691 6.32557
1 18.4209 24.9739 24.3402
1 22.6472 26.5686 8.6292
1 3.09256 19.9175 22.331
1 12.0864 1.64775 11.1884
1 5.47962 3.42736 11.3111
1 21.3989 9.69255 24.7709
1 19.2424 14.0869 4.4473
1 7.55122 12.0965 11.0289
1 26.8383 4.47942 3.83946
1 15.1085 21.0274 0.732277
1 3.05433 23.2073 20.6167
1 23.1856 2.77518 24.7618
1 24.361 0.952299 13.2679
1 3.60971 18.6199 24.4335
1 12.7396 13.9989 24.4961
1 4.67462 18.7336 8.31777
1 25.1221 26.0766 11.5901
1 7.4685 20.6347 9.34188
1 4.30002 1.74726 3.9432
1 12.5589 7.58226 15.7813
1 23.5418 22.394 0.558318
1 0.356196 21.6913 13.6932
1 11.603 25.2826 14.4181
1 0.766296 11.4614 1.71754
1 7.55076 0.783328 17.654
1 11.5651 27.1107 9.09335
1 12.4424 19.6577 10.7342
1 20.8369 25.1546 16.9456
1 18.6042 2.54192 6.52088
1 10.3053 6.45404 21.3448
1 17.5058 3.13381 1.69083
1 14.2921 9.80048 11.6031
1 18.4954 3.26073 17.9492
1 3.32669 17.2702 26.7056
1 17.3803 18.1802 15.3859
1 14.858 6.82692 14.4179
1 21.5055 13.3899 12.9661
1 16.0271 25.9182 10.7284
1 6.76616 16.5301 23.3565
1 15.7148 2.62427 5.09472
1 22.9402 24.0942 6.61704
1 19.2474 3.0234 21.0522
1 24.7351 4.14323 17.7732
1 27.0985 15.5482 7.98718
1 19.133 10.245 18.2715
1 21.0571 2.59473 25.9431
1 25.1888 17.3531 16.8372
1 18.6279 11.393 10.8484
1 1.69849 13.2497 18.6835
1 26.7277 24.0201 10.4857
1 9.25076 25.9685 25.3474
1 1.24604 5.89534 9.20628
1 17.0581 25.6885 5.41499
1 7.30965 23.8346 4.6947
1 10.0823 12.9853 15.98
1 22.2575 17.9357 17.9841
1 5.75866 11.9677 15.2025
1 1.48657 17.1255 18.0068
1 0.992077 16.6008 0.126005
1 1.44512 23.1868 6.90169
1 10.7172 20.4084 2.46836
1 17.9451 12.3391 5.27194
1 10.1163 7.45365 16.6174
1 16.2611 5.13001 3.1902
1 15.9198 15.9131 9.75046
1 2.45955 8.63338 1.34378
1 12.0779 26.2506 20.919
1 0.205909 1.75491 20.8505
1 10.848 19.6357 27.1223
1 14.086 6.68435 26.1945
1 15.0911 2.393 16.9221
1 8.48582 24.8624 9.94636
1 26.9286 21.5235 7.76948
1 24.2473 23.4574 21.4235
1 11.7238 10.9161 23.6985
1 20.8107 17.4392 13.5103
1 16.9008 6.96123 23.997
1 16.5236 26.4822 19.8689
1 7.37242 25.5805 1.49885
1 10.3939 14.6837 14.2436
1 18.2373 0.292911 16.0289
1 26.805 23.8939 13.105
1 4.37632 15.8733 2.15166
1 1.11437 23.3987 3.05274
1 18.1321 20.6494 16.2313
1 8.51372 14.1779 7.258
1 21.3583 10.3697 19.387
1 23.3789 15.389 7.47218
1 24.5951 10.0945 18.1415
1 11.302 21.6687 9.92633
1 20.9674 14.5071 0.452599
1 2.76423 19.9244 7.18655
1 22.5925 0.724725 20.8195
1 14.3674 4.9462 16.3169
1 8.07275 23.1499 11.6182
1 5.74667 26.1525 11.7084
1 18.0193 10.2861 21.5201
1 8.27645 6.8235 9.39782
1 8.31419 22.4083 22.5914
1 7.57595 20.4255 3.17682
1 26.156 23.2162 17.7643
1 0.43494 19.2574 5.64758
1 8.26617 22.2916 17.7087
1 17.4187 19.4955 2.42612
1 10.4599 4.68903 3.11455
1 7.5907 3.09584 2.25093
1 2.8307 24.2342 15.1086
1 12.4701 26.3311 4.10318
1 5.77669 27.0044 7.14281
1 25.4576 26.3555 15.1496
1 8.33996 1.58188 26.1529
1 7.07096 20.627 12.9052
1 24.9173 7.37119 15.912
1 5.82754 8.49119 7.78843
1 17.1955 13.485 10.0523
1 4.34791 11.8391 9.04926
1 12.352 23.4788 11.2247
1 14.7808 26.9776 16.5332
1 24.156 2.89048 5.69976
1 11.6743 17.578 3.17962
1 15.5188 7.52505 11.6187
1 9.8871 12.8103 9.14021
1 27.1012 22.673 23.9256
1 5.76335 1.84807 21.738
1 21.7483 21.7095 11.8219
1 7.00542 1.78034 12.4274
1 23.2361 1.1172 15.5449
1 17.7835 25.7184 12.5374
1 9.28993 4.59193 8.44007
1 25.3484 8.53851 2.54844
1 4.30731 10.005 12.1194
1 0.810055 21.8135 10.2889
1 24.0847 6.3787 10.8965
1 21.4832 20.4445 20.0523
1 0.276924 17.8159 20.5474
1 14.9411 10.7175 20.062
1 5.37309 22.8925 21.8551
1 5.22576 23.5078 14.552
1 12.9029 22.9682 22.1525
1 4.38322 14.7456 17.7451
1 24.307 26.398 19.6278
1 10.4912 2.40996 19.8391
1 17.3218 6.64105 15.5438
1 8.05941 9.54504 13.8041
1 9.5744 24.125 16.7526
1 18.5191 23.5331 14.5842
1 24.669 22.5364 15.8798
1 10.8281 8.6727 19.9599
1 13.6833 25.7793 22.6758
1 21.4303 4.06713 13.6401
1 20.1477 6.7853 19.8258
1 14.3382 5.93833 4.54532
1 19.9614 12.0476 20.7219
1 5.14361 0.413643 18.0249
1 8.80333 18.4718 15.834
1 10.697 22.3183 0.2271
1 9.08759 0.543837 22.1013
1 7.48831 1.06416 23.8396
1 25.2219 0.702434 4.87041
1 1.49132 14.027 24.2048
1 20.487 1.50374 13.8885
1 0.319969 3.67543 14.6853
1 0.456674 26.1778 4.2494
1 13.7032 8.43722 8.77766
1 23.751 1.01351 23.0531
1 20.7183 14.9778 19.3618
1 18.331 12.8362 7.57972
1 24.6733 0.742778 9.92161
1 1.24562 7.2582 11.1746
1 0.523569 10.3633 19.2325
1 8.69254 2.76057 13.9455
1 6.5987 16.7664 20.513
1 5.16481 6.78957 15.0894
1 5.53306 5.17423 18.9386
1 3.61352 24.3501 8.03798
1 5.1314 6.00256 0.692717
1 3.3133 1.15186 25.1005
1 23.1892 4.49706 20.3104
1 1.95776 3.56642 22.717
1 6.16391 14.7665 25.073
1 20.7974 6.06545 24.349
1 4.24276 4.2195 13.7851
1 4.61068 6.50676 21.1744
1 26.0484 0.440397 26.7102
1 20.7286 10.0483 7.88193
1 12.738 23.012 4.00834
1 13.2819 8.24731 5.89259
1 12.6091 7.57616 18.5244
1 8.17167 20.0882 0.566227
1 10.214 12.5154 22.5089
1 15.7736 1.66429 26.6219
1 18.3064 1.0549 2.51779
1 20.9621 0.382584 15.9844
1 9.40622 24.1168 19.9149
1 21.0095 18.0846 22.4061
1 17.4246 18.9138 12.5968
1 7.68244 26.9888 10.6895
1 2.43254 7.85911 18.5379
1 4.02385 10.9765 24.3322
1 23.1722 8.43509 5.55828
1 2.79776 21.7577 14.0851
1 20.6288 1.69008 23.4807
1 1.56176 21.4007 20.7999
1 11.776 25.4676 24.3071
1 3.49881 16.7559 16.6236
1 26.1198 9.70763 16.1507
1 1.66113 9.97442 4.5659
1 9.14071 3.54914 24.652
1 18.058 15.796 17.7945
1 19.5895 22.7069 12.3793
1 18.342 4.98382 19.9716
1 2.60544 10.901 18.0387
1 2.82216 1.01071 15.6306
1 23.8758 23.7612 3.69484
1 24.8177 16.9067 6.02555
1 12.9508 21.5156 19.3891
1 8.45519 12.4961 18.709
1 15.3329 13.7193 20.1067
1 1.94583 5.52282 24.4021
1 3.00412 4.48343 10.5591
1 25.4867 17.3523 13.836
1 9.86651 2.24502 17.38
1 14.0798 0.940508 1.04558
1 10.5889 9.87138 17.0263
1 19.5259 22.9418 16.8418
1 16.3473 22.596 15.6681
1 11.5623 16.3627 15.6604
1 11.3829 7.96277 12.2775
1 21.0944 4.3697 16.5109
1 14.3038 2.58796 19.3583
1 6.38492 9.01815 17.8616
1 16.0766 18.2871 19.4251
1 5.09943 18.3815 17.2254
1 9.57706 20.2943 17.5519
1 11.5814 9.75285 7.54926
1 21.8687 5.64617 18.4654
1 20.69 17.2759 19.992
1 25.1492 5.5382 0.500461
1 7.23993 7.26822 20.7513
1 12.9305 26.4939 26.7058
1 14.7455 12.5139 17.6688
1 11.8893 13.141 4.40671
1 3.69622 0.463615 8.358
1 20.2218 18.2657 10.0074
1 9.2229 26.6175 0.610796
1 13.0642 8.16989 24.4129
1 7.04879 9.68903 20.791
1 19.1412 4.90554 1.88208
1 12.3328 4.51213 20.5865
1 26.3027 12.1347 18.3343
1 26.8021 18.4406 0.879389
1 3.59215 15.4004 25.1958
1 26.897 5.4773 12.1086
1 22.6326 17.8567 11.0455
1 13.1746 5.89181 22.4791
1 7.96488 1.62345 20.0855
1 14.4728 14.8959 25.8859
1 12.4608 21.2426 25.6513
1 2.50535 11.7279 12.2476
1 1.40744 2.26174 9.42047
1 8.82344 19.3236 5.93749
1 13.1553 10.4079 17.1791
1 8.34016 15.6657 13.1174
1 6.56451 13.78 0.9334
1 15.8608 5.22174 25.2669
1 11.3448 12.488 20.2865
1 4.38493 4.54066 22.7246
1 4.29025 0.910778 11.1742
1 6.09584 15.7134 10.4222
1 15.5348 24.2274 2.7804
1 18.7596 6.08573 22.7192
1 5.78481 9.44047 25.3629
1 6.23695 19.298 20.6627
1 15.8417 21.8312 13.1863
1 23.2735 13.5321 16.2074
1 15.8437 20.0252 17.34
1 18.2581 20.8454 13.7488
1 10.3428 15.6467 20.5221
1 19.0019 4.71443 13.2672
1 9.08077 21.0805 10.8923
1 5.36178 16.388 8.32121
1 19.4094 17.8399 24.4868
1 13.6007 19.6119 16.1245
1 9.34553 22.4791 2.68595
1 14.1305 17.3958 3.50284
1 0.082566 2.91841 24.4809
1 16.4613 4.24769 22.258
1 1.90774 4.16906 12.7806
1 11.064 12.5085 25.6859
1 6.51262 15.3 16.9305
1 12.1953 15.0627 22.1019
1 2.82061 17.2833 6.49597
1 24.5105 0.503352 17.5601
1 26.3709 20.6502 18.2362
1 7.31336 4.0146 20.3442
1 0.428329 1.25455 15.1807
1 7.55701 21.428 5.58851
1 16.0108 6.39782 20.8039
1 6.66779 3.61427 23.4311
1 4.50722 19.3183 13.7801
1 0.135195 27.0646 9.48755
1 20.3496 26.5214 24.2654
1 23.2949 18.7914 20.386
1 26.9134 15.2418 17.4419
1 16.4441 17.2745 21.926
1 11.9767 20.0913 17.8868
1 5.24191 22.1413 12.4912
1 26.7858 0.977212 17.4669
1 18.8117 20.9512 4.16254
1 2.19378 4.4242 3.82683
1 26.565 21.0871 0.372316
1 26.2179 1.66613 7.53768
1 15.9589 17.0874 17.1482
1 8.74629 7.22396 18.7453
1 25.7182 2.44366 22.6232
1 20.9177 20.8465 2.67786
1 4.67177 6.44473 10.8149
1 19.3025 24.454 8.25703
1 20.0676 22.0855 0.887043
1 27.1499 0.357892 12.8062
1 1.02947 26.4997 18.722
1 22.6027 8.83001 17.3805
1 15.5909 10.5987 15.2107
1 11.9609 23.6923 1.71431
1 18.9443 3.01138 15.4735
1 19.7424 1.03847 19.698
1 1.36769 12.3658 14.6809
1 18.0643 23.612 18.6506
1 22.9477 8.4228 14.2919
1 3.96977 1.70634 13.695
1 1.22494 25.8714 11.2547
1 8.3534 5.47797 13.4771
1 24.1594 7.09739 23.3688
1 2.52558 1.42309 19.7735
1 21.0167 2.88754 4.20535
1 1.68664 4.51013 20.3415
1 24.1752 9.68028 7.88587
1 9.94203 0.209389 3.99703
1 26.0158 9.53143 26.3588
1 3.10837 12.4231 4.33334
1 22.8732 25.8294 24.4074
1 1.86484 13.3694 21.7046
1 13.0418 10.841 3.35718
1 17.6331 9.23939 2.40626
1 13.8602 19.1743 12.7654
1 14.76 0.767767 11.2538
1 9.78416 26.7075 12.1972
1 14.4191 4.0707 23.7358
1 18.8376 24.8246 20.8512
1 6.6225 25.8662 24.0562
1 10.9104 1.58864 6.18355
1 17.4046 7.96088 18.1947
1 7.2432 17.7352 4.703
1 7.99921 21.0097 15.1207
1 13.7341 21.1359 14.264
1 20.7177 5.66831 8.26486
1 9.74336 27.007 7.39943
1 11.9497 4.5268 6.79639
1 1.69772 4.47885 26.5886
1 6.13793 21.9332 19.6915
1 26.488 7.24888 13.9058
1 5.87818 6.10237 8.56534
1 23.0624 18.0785 2.25913
1 4.27205 12.9623 6.64407
1 19.0534 17.2791 11.9257
1 16.783 7.01443 1.64163
1 3.61689 2.88801 26.7072
1 7.66528 23.8098 7.90909
1 26.6269 25.4728 24.2338
1 13.4286 26.0788 7.95012
1 9.34573 24.8115 6.38987
1 1.83209 4.20467 17.7634
1 6.71565 24.6663 26.3298
1 0.173835 25.244 16.7286
1 25.3789 17.467 11.0531
1 21.6522 22.2619 26.1768
1 5.96342 9.43771 15.4996
1 10.2579 17.9805 20.716
1 16.2127 24.7862 17.4645
1 7.48065 10.6564 0.893144
1 3.82477 26.8204 2.60188
1 12.0906 16.6412 24.8421
1 14.2401 24.5403 26.5444
1 20.7571 0.228686 26.7008
1 13.403 2.61473 21.8412
1 5.07477 3.65934 2.73718
1 12.2098 12.054 8.30894
1 12.5058 11.6017 0.270207
1 12.6726 24.5093 5.92219
1 16.3708 19.3769 7.55737
1 0.813083 0.972512 5.85252
1 20.4029 26.6644 21.5138
1 6.06805 5.7951 12.7961
1 10.2027 24.543 4.03827
1 19.4222 7.12805 6.34603
1 21.9703 26.6403 6.1576
1 18.8836 26.2636 18.3003
1 14.3429 2.25434 9.1376
1 12.5581 6.06864 0.979933
1 11.254 15.1672 2.87019
1 7.27898 24.6268 22.2181
1 19.5513 10.1109 13.5688
1 20.1376 8.37534 22.9328
1 22.99 7.95413 25.4296
1 4.50458 9.04399 21.4732
1 7.54735 17.4522 18.0854
1 26.188 0.110687 1.85202
1 20.0103 24.1872 4.16925
1 8.69598 10.1461 18.7337
1 20.6084 6.72074 26.6554
1 17.5287 21.3639 0.724174
1 25.2778 4.6491 21.8267
1 19.6962 12.5184 23.9918
1 3.20767 20.9506 11.4428
1 5.24513 4.05311 16.4183
1 19.9581 5.10377 4.05046
1 24.0948 12.0186 14.2117
1 3.55462 8.43344 7.78748
1 23.6782 14.1717 23.8656
1 15.8061 4.52174 12.7582
1 5.53587 20.5708 22.6676
1 16.7061 24.6143 26.3481
1 1.21972 11.6132 24.3711
1 5.88327 0.435411 14.4869
1 3.30476 5.88202 7.81019
1 27.1066 14.1264 5.24824
1 12.4775 4.59389 25.4107
1 10.9652 18.2325 5.57694
1 15.0023 8.581 16.4981
1 18.4131 19.1806 6.04167
1 26.0939 24.6181 2.52463
1 23.5596 7.19465 20.9999
1 11.5993 1.19796 22.1171
1 10.4703 14.0185 18.5784
1 7.33957 13.0938 20.698
1 19.0471 26.5718 0.930456
1 0.88273 25.4696 14.1603
1 8.18408 6.86611 24.7855
1 18.0827 16.5911 27.1112
1 2.11457 15.7949 11.1839
1 24.2355 14.6974 21.3165
1 23.3669 5.64887 8.61739
1 24.5101 12.8482 6.92532
1 1.53452 7.01005 15.1613
1 13.9332 11.914 23.2973
1 14.3991 19.6005 2.61177
1 16.3188 2.01675 20.8451
1 19.605 22.9129 24.2205
1 24.7889 10.6867 5.12483
1 5.63935 4.34045 25.921
1 19.1555 20.061 20.7347
1 20.6466 15.2453 16.8926
1 4.22394 20.4083 26.3395
1 14.1847 0.478603 13.7969
1 25.3845 18.5881 18.9712
1 7.69386 11.8023 22.7662
1 1.22123 10.9126 21.7048
1 4.42473 18.7877 1.40391
1 14.9595 10.082 5.67502
1 9.98846 16.5958 17.6891
1 8.20103 9.36473 25.6896
1 16.8771 22.2234 21.7644
1 25.3658 18.5264 25.8313
1 22.2718 20.0561 23.0005
1 26.2638 12.2545 15.8128
1 23.4765 16.954 22.2281
1 20.9628 5.34974 10.7887
1 3.83924 16.6786 14.1053
1 22.0069 16.1768 24.2771
1 15.1775 8.56805 0.0253178
1 6.88656 22.0396 26.6286
1 16.4326 20.8634 24.0335
1 20.3397 15.2619 9.09098
1 11.2725 18.2246 22.7766
1 21.4843 7.1242 3.0147
1 12.3576 0.889112 24.5702
1 25.3739 8.5441 19.8626
1 16.4999 13.5614 25.7249
1 17.2496 11.7873 19.2035
1 9.38029 2.99262 4.61284
1 1.90302 20.7541 16.4991
1 17.4999 8.60898 25.6053
1 22.6039 13.64 3.49292
1 14.4167 18.0003 0.341733
1 3.77367 21.8085 18.6514
1 11.5489 26.1219 1.56171
1 15.6185 10.3298 22.443
1 15.0302 24.0314 12.1735
1 19.8005 6.21151 15.3295
1 20.7355 19.87 13.5195
1 26.4472 5.47605 19.7411
1 2.29136 11.1946 6.84523
1 18.5358 0.80973 12.6265
1 16.3642 17.2079 1.65363
1 17.961 23.1001 4.50974
1 26.0537 14.302 19.503
1 25.5361 11.9232 26.6378
1 15.0877 12.1268 2.08348
1 24.1767 24.0467 18.9823
1 4.36613 23.0604 26.1085
1 20.916 2.03297 17.7441
1 26.533 20.7892 15.485
1 18.2622 21.2593 25.5304
1 26.6277 10.1538 6.65412
1 22.2855 11.5709 6.86023
1 20.7461 2.04756 1.93166
1 24.5121 21.326 3.655
1 14.0048 16.999 15.3594
1 4.2902 16.4368 22.8703
1 8.67435 21.7527 20.3989
1 13.8452 17.1042 19.7837
1 15.8219 21.9639 7.80509
1 23.2311 23.7177 12.2639
1 24.8862 23 7.94189
1 26.2283 22.1365 20.4645
1 1.29503 19.3356 25.912
1 17.0661 11.9768 16.6282
1 19.7559 25.116 11.1008
1 24.9609 2.39625 2.90499
1 12.3604 1.00095 19.085
1 21.4626 17.0071 0.751417
1 17.9914 19.1252 22.814
1 23.9334 9.19732 0.517649
1 14.3528 8.75047 2.55549
1 4.46954 26.0431 16.0846
1 5.59119 24.6073 6.67625
1 23.6512 14.5154 12.5162
1 23.7031 20.1132 17.2583
1 0.290645 16.6514 5.64506
1 24.7825 20.3569 21.9478
1 19.6974 17.1488 15.5442
1 13.4003 13.2336 21.3616
1000
Atoms. Timestep: 8010
1 24.9318 6.62246 6.93718
1 21.8952 1.92042 6.43194
1 0.407538 24.0072 21.735
1 10.6059 7.32479 24.7675
1 18.2321 10.3665 8.55259
1 26.7814 4.10177 8.87149
1 9.97934 14.7294 23.6287
1 17.2695 27.0106 26.3202
1 23.1271 19.516 12.7392
1 26.5387 9.32996 9.38116
1 4.24716 19.29 19.3246
1 4.48809 24.4002 23.9554
1 1.19814 13.4087 3.27553
1 22.8811 9.14389 3.21036
1 5.56953 5.1817 4.65457
1 23.0163 0.940465 2.13079
1 24.549 22.7796 10.4314
1 2.90552 25.2489 22.1801
1 8.69631 5.1543 1.48394
1 9.18527 18.35 2.93421
1 17.9915 26.3271 9.07464
1 5.33581 26.9502 0.745397
1 1.06613 19.357 8.93018
1 17.6038 0.636545 23.9215
1 11.3574 12.2815 13.0399
1 4.13721 14.1759 22.0881
1 4.00785 26.1896 26.0033
1 13.5823 13.8114 0.854408
1 7.29206 5.87949 6.40905
1 16.8519 25.589 14.9579
1 8.15575 16.9164 1.16613
1 23.29 26.5351 4.15836
1 20.0257 18.979 17.1965
1 25.6581 8.06894 11.3612
1 2.67124 2.55433 5.47014
1 15.7718 12.0575 11.4965
1 14.6263 1.7032 24.4757
1 1.8349 26.3548 7.31795
1 6.10423 0.611445 4.88346
1 1.31743 10.2396 26.6964
1 27.1077 7.5154 18.3071
1 19.8713 15.214 25.3346
1 19.708 9.22843 26.6253
1 9.78389 14.6379 5.34404
1 22.9757 16.1989 16.3009
1 0.858061 7.5946 22.5053
1 10.9479 10.6092 1.81164
1 14.3905 5.39085 19.0049
1 0.109147 2.72843 1.86308
1 23.2365 13.6995 0.672607
1 10.3997 0.147486 15.9862
1 5.94245 7.80161 23.4357
1 25.4732 14.0881 9.15222
1 21.8493 10.9234 13.0185
1 9.23708 23.357 25.6647
1 11.4367 14.7965 0.0998959
1 1.84482 1.80438 11.7658
1 8.16923 7.31761 15.0048
1 19.0633 17.7486 3.77964
1 0.213153 12.6245 7.30641
1 3.50907 11.2861 1.90201
1 10.3398 7.3507 4.23228
1 16.9936 6.48696 9.81821
1 21.7768 12.7335 22.6814
1 22.6533 23.302 17.2643
1 18.7135 18.1889 19.0116
1 17.6265 6.95133 12.907
1 20.034 7.89737 17.7176
1 26.4432 3.56011 26.9098
1 2.72295 18.5786 10.5691
1 17.5339 23.867 1.36621
1 2.73641 9.29336 23.0384
1 23.1115 11.4981 26.7394
1 22.3819 13.506 20.1921
1 21.6483 22.5085 4.21678
1 3.02584 17.7551 20.9405
1 8.03393 5.55725 22.5027
1 21.0402 10.8205 10.232
1 24.5516 20.7587 25.8443
1 25.5252 23.8133 0.318841
1 14.71 17.3109 25.0338
1 26.5413 11.9214 10.1791
1 20.1518 24.4092 1.82391
1 22.1704 10.813 15.8677
1 20.7504 13.5246 7.37487
1 8.3333 14.5558 10.8842
1 16.0547 8.46262 4.42237
1 2.3083 6.75158 20.6484
1 6.92957 9.13673 5.7307
1 5.47154 14.5721 20.0957
1 11.9699 14.3811 10.0682
1 6.73916 12.9847 6.19279
1 17.2851 3.71968 26.479
1 15.1347 24.0212 6.5372
1 5.45872 9.80818 1.65999
1 6.19655 12.2131 26.3012
1 9.95927 15.776 8.98534
1 8.21993 10.8697 8.63564
1 16.6376 10.6823 0.657743
1 25.0905 9.6377 24.041
1 14.0032 14.9234 3.15219
1 8.21503 15.5427 3.71211
1 5.36051 24.3245 17.8252
1 21.951 6.1992 5.74089
1 15.6428 12.1864 4.50378
1 12.6347 12.4596 15.6713
1 13.5793 6.12436 7.36045
1 17.5989 21.3308 19.1451
1 26.4368 15.0076 23.3262
1 14.4624 11.3534 9.42285
1 3.15477 10.9913 15.6064
1 4.53374 8.12323 27.0244
1 1.98386 12.2468 9.93957
1 22.5194 12.9593 9.37139
1 17.8052 4.52994 5.123
1 18.7882 10.3053 4.49155
1 1.26606 26.9725 22.659
1 4.44453 17.052 11.6223
1 4.51152 25.1944 4.45466
1 8.11799 17.37 9.5899
1 25.0684 14.5457 2.21242
1 5.7167 23.8313 10.5611
1 1.47881 26.9665 1.79015
1 26.759 13.4625 0.705286
1 3.63942 2.35839 17.4814
1 0.869778 19.1705 2.91421
1 2.01084 21.5089 0.211169
1 18.4642 13.773 14.1568
1 24.8847 16.8122 1.25379
1 3.35715 1.48061 22.633
1 25.5861 24.8601 5.53898
1 24.7045 22.0606 23.8135
1 15.0173 7.81825 22.728
1 26.3953 9.4154 22.0082
1 9.08849 14.347 1.32296
1 2.06877 13.6927 26.7878
1 1.06881 6.81808 0.33426
1 6.43109 18.6295 26.9628
1 17.7396 15.7687 3.98074
1 24.5458 19.4478 14.8978
1 16.7918 5.46251 17.928
1 21.9022 17.2129 8.11444
1 23.1665 12.1215 18.2615
1 18.4744 4.82957 10.9031
1 19.3509 4.09461 25.1672
1 21.774 1.64338 9.49621
1 17.5343 11.6567 13.5382
1 23.6925 20.1174 5.58068
1 24.2541 15.4255 26.2599
1 15.9534 20.1853 4.51129
1 6.01407 22.2728 16.4522
1 26.5986 18.8819 22.495
1 10.9177 5.31365 23.7001
1 13.6876 23.3184 15.9983
1 13.6875 10.2226 25.7391
1 3.23954 2.94168 7.86577
1 23.2676 11.2614 24.1695
1 9.59981 8.87571 8.69578
1 16.9411 1.40559 18.2092
1 2.54333 7.98488 25.3204
1 4.25098 13.8865 14.7624
1 23.4117 4.01788 1.5332
1 6.25211 6.60555 2.7905